# Wall shear stress 
# Time              	patch               	min                 	max                 
0.000000000000e+00	wall	(0.000000000000e+00 0.000000000000e+00 0.000000000000e+00)	(0.000000000000e+00 0.000000000000e+00 0.000000000000e+00)
1.000000000000e+02	wall	(5.374033160824e-12 -2.310362176878e-02 -3.663547391891e-01)	(6.106198612136e-09 6.185550388236e-02 1.994640836710e-01)
2.000000000000e+02	wall	(1.627572083282e-11 -4.545947357374e-05 -6.708632785167e-01)	(5.684229576196e-09 6.532993701680e-02 -9.349142398479e-03)
3.000000000000e+02	wall	(3.060196572770e-11 -2.067371965210e-05 -8.027394675666e-01)	(8.369771070319e-09 8.193026320794e-02 -8.599943740290e-03)
4.000000000000e+02	wall	(4.740989682048e-11 -8.604936904947e-06 -8.542317882675e-01)	(9.747072213838e-09 8.762088657432e-02 -8.089408793593e-03)
5.000000000000e+02	wall	(6.517956507470e-11 -3.162330237415e-06 -8.746621244739e-01)	(1.037825792789e-08 8.984744496167e-02 -7.741022580544e-03)
5.560000000000e+02	wall	(7.495875803209e-11 -1.793688964195e-06 -8.793981197601e-01)	(1.056621110701e-08 9.037886506786e-02 -7.601482612993e-03)
