# Wall shear stress 
# Time              	patch               	min                 	max                 
0.000000000000e+00	wall	(0.000000000000e+00 0.000000000000e+00 0.000000000000e+00)	(0.000000000000e+00 0.000000000000e+00 0.000000000000e+00)
1.000000000000e+02	wall	(-4.926900559837e-13 -1.688731336005e-04 -3.565323838314e-01)	(1.064575712147e-12 1.857514892040e-01 -1.654265476685e-03)
2.000000000000e+02	wall	(-7.124292068142e-14 -4.286853108816e-05 -7.831823591251e-01)	(5.705720854192e-12 3.812793051644e-01 -1.449069800885e-03)
3.000000000000e+02	wall	(4.268543935084e-14 -1.092134095431e-03 -9.370014300303e-01)	(9.343929490433e-12 4.565670419746e-01 -1.401153800974e-03)
4.000000000000e+02	wall	(6.726147722405e-14 -1.053501358737e-03 -9.851074811549e-01)	(1.131353746542e-11 4.812153669987e-01 -1.390834932998e-03)
5.000000000000e+02	wall	(7.675363956254e-14 -1.110411822212e-03 -1.000240685961e+00)	(1.233769857101e-11 4.890996755098e-01 -1.393272592632e-03)
6.000000000000e+02	wall	(8.204014900035e-14 -1.129044559289e-03 -1.005159664138e+00)	(1.288241640345e-11 4.917055338609e-01 -1.398353187745e-03)
6.400000000000e+02	wall	(8.379621365616e-14 -1.133251406360e-03 -1.006435699964e+00)	(1.302301835789e-11 4.923633603037e-01 -1.399639372555e-03)
