# Residuals         
# Time              	Ux                  	Uz                  	p                   
0                   	N/A	N/A
1.19999040008e-06   	N/A	N/A
2.63996505619e-06   	N/A	N/A
4.36788487769e-06   	N/A	N/A
6.44135999858e-06   	N/A	N/A
8.92946822732e-06   	N/A	N/A
1.19150792242e-05   	N/A	N/A
1.54976840347e-05   	N/A	N/A
1.97966865561e-05   	N/A	N/A
2.49551346223e-05   	N/A	N/A
3.11447611847e-05   	N/A	N/A
3.85717610716e-05   	N/A	N/A
4.74838959697e-05   	N/A	N/A
5.81780762532e-05   	N/A	N/A
7.10099934998e-05   	N/A	N/A
8.64059201129e-05   	N/A	N/A
0.000104878752859   	N/A	N/A
0.000127044510854   	N/A	N/A
0.000153643420448   	N/A	N/A
0.000185555300461   	N/A	N/A
0.00022384465073    	N/A	N/A
0.000269763613229   	N/A	N/A
0.00032483585729    	N/A	N/A
0.000390893256416   	N/A	N/A
0.000470141030766   	N/A	N/A
0.000565207938577   	N/A	N/A
0.000679112989409   	N/A	N/A
0.000815735945118   	N/A	N/A
0.000979683491967   	N/A	N/A
0.001175764758      	N/A	N/A
0.0014104966582     	N/A	N/A
0.00169136083937    	N/A	N/A
0.00202683750021    	N/A	N/A
0.00242661385437    	N/A	N/A
0.00290234771583    	N/A	N/A
0.00346978930961    	N/A	N/A
0.00414414018918    	N/A	N/A
0.00494862895779    	N/A	N/A
0.0059071687672     	N/A	N/A
0.00703775418343    	N/A	N/A
0.00833964042029    	N/A	N/A
0.00982751040528    	N/A	N/A
0.0115013641384     	N/A	N/A
0.0133346325128     	N/A	N/A
0.0153715973732     	N/A	N/A
0.0174085622336     	N/A	N/A
0.019445527094      	N/A	N/A
0.0214824919544     	N/A	N/A
0.0235194568148     	N/A	N/A
0.0255564216752     	N/A	N/A
0.0275933865356     	N/A	N/A
0.029630351396      	N/A	N/A
0.0316673162564     	N/A	N/A
0.0337042811168     	N/A	N/A
0.0357412459772     	N/A	N/A
0.0377782108376     	N/A	N/A
0.039815175698      	N/A	N/A
0.0418521405584     	N/A	N/A
0.0438891054188     	N/A	N/A
0.0459260702792     	N/A	N/A
0.0479630351396     	N/A	N/A
0.05                	N/A	N/A
0.0520833333333     	N/A	N/A
0.0541666666667     	N/A	N/A
0.05625             	N/A	N/A
0.0583333333333     	N/A	N/A
0.0604166666667     	N/A	N/A
0.0625              	N/A	N/A
0.0645833333333     	N/A	N/A
0.0666666666667     	N/A	N/A
0.06875             	N/A	N/A
0.0708333333333     	N/A	N/A
0.0729166666667     	N/A	N/A
0.075               	N/A	N/A
0.0770833333333     	N/A	N/A
0.0791666666667     	N/A	N/A
0.08125             	N/A	N/A
0.0833333333333     	N/A	N/A
0.0854166666667     	N/A	N/A
0.0875              	N/A	N/A
0.0895833333333     	N/A	N/A
0.0916666666667     	N/A	N/A
0.09375             	N/A	N/A
0.0958333333333     	N/A	N/A
0.0979166666667     	N/A	N/A
0.1                 	N/A	N/A
0.102083333333      	N/A	N/A
0.104166666667      	N/A	N/A
0.10625             	N/A	N/A
0.108333333333      	N/A	N/A
0.110416666667      	N/A	N/A
0.1125              	N/A	N/A
0.114583333333      	N/A	N/A
0.116666666667      	N/A	N/A
0.11875             	N/A	N/A
0.120833333333      	N/A	N/A
0.122916666667      	N/A	N/A
0.125               	N/A	N/A
0.127083333333      	N/A	N/A
0.129166666667      	N/A	N/A
0.13125             	N/A	N/A
0.133333333333      	N/A	N/A
0.135416666667      	N/A	N/A
0.1375              	N/A	N/A
0.139583333333      	N/A	N/A
0.141666666667      	N/A	N/A
0.14375             	N/A	N/A
0.145833333333      	N/A	N/A
0.147916666667      	N/A	N/A
0.15                	N/A	N/A
0.152083333333      	N/A	N/A
0.154166666667      	N/A	N/A
0.15625             	N/A	N/A
0.158333333333      	N/A	N/A
0.160416666667      	N/A	N/A
0.1625              	N/A	N/A
0.164583333333      	N/A	N/A
0.166666666667      	N/A	N/A
0.16875             	N/A	N/A
0.170833333333      	N/A	N/A
0.172916666667      	N/A	N/A
0.175               	N/A	N/A
0.177083333333      	N/A	N/A
0.179166666667      	N/A	N/A
0.18125             	N/A	N/A
0.183333333333      	N/A	N/A
0.185416666667      	N/A	N/A
0.1875              	N/A	N/A
0.189583333333      	N/A	N/A
0.191666666667      	N/A	N/A
0.19375             	N/A	N/A
0.195833333333      	N/A	N/A
0.197916666667      	N/A	N/A
0.2                 	N/A	N/A
0.202083333333      	N/A	N/A
0.204166666667      	N/A	N/A
0.20625             	N/A	N/A
0.208333333333      	N/A	N/A
0.210416666667      	N/A	N/A
0.2125              	N/A	N/A
0.214583333333      	N/A	N/A
0.216666666667      	N/A	N/A
0.21875             	N/A	N/A
0.220833333333      	N/A	N/A
0.222916666667      	N/A	N/A
0.225               	N/A	N/A
0.227083333333      	N/A	N/A
0.229166666667      	N/A	N/A
0.23125             	N/A	N/A
0.233333333333      	N/A	N/A
0.235185185185      	N/A	N/A
0.237037037037      	N/A	N/A
0.238888888889      	N/A	N/A
0.240740740741      	N/A	N/A
0.242592592593      	N/A	N/A
0.244444444444      	N/A	N/A
0.246296296296      	N/A	N/A
0.248148148148      	N/A	N/A
0.25                	N/A	N/A
0.251388888889      	N/A	N/A
0.252469135802      	N/A	N/A
0.253502415459      	N/A	N/A
0.254414132803      	N/A	N/A
0.255290784095      	N/A	N/A
0.256134354207      	N/A	N/A
0.256977924318      	N/A	N/A
0.257821494429      	N/A	N/A
0.258700213295      	N/A	N/A
0.259638844811      	N/A	N/A
0.260647873691      	N/A	N/A
0.261740988311      	N/A	N/A
0.262936582426      	N/A	N/A
0.264260275911      	N/A	N/A
0.265749431081      	N/A	N/A
0.267380410554      	N/A	N/A
0.269192609967      	N/A	N/A
0.271118071844      	N/A	N/A
0.273181066713      	N/A	N/A
0.275244061581      	N/A	N/A
0.277307056449      	N/A	N/A
0.279370051317      	N/A	N/A
0.281433046186      	N/A	N/A
0.283496041054      	N/A	N/A
0.285559035922      	N/A	N/A
0.28762203079       	N/A	N/A
0.289685025659      	N/A	N/A
0.291748020527      	N/A	N/A
0.293811015395      	N/A	N/A
0.295874010263      	N/A	N/A
0.297937005132      	N/A	N/A
0.3                 	N/A	N/A
0.302083333333      	N/A	N/A
0.304166666667      	N/A	N/A
0.30625             	N/A	N/A
0.308333333333      	N/A	N/A
0.310416666667      	N/A	N/A
0.3125              	N/A	N/A
0.314583333333      	N/A	N/A
0.316666666667      	N/A	N/A
0.31875             	N/A	N/A
0.320833333333      	N/A	N/A
0.322916666667      	N/A	N/A
0.325               	N/A	N/A
0.327083333333      	N/A	N/A
0.329166666667      	N/A	N/A
0.33125             	N/A	N/A
0.333333333333      	N/A	N/A
0.335416666667      	N/A	N/A
0.3375              	N/A	N/A
0.339583333333      	N/A	N/A
0.341666666667      	N/A	N/A
0.34375             	N/A	N/A
0.345833333333      	N/A	N/A
0.347916666667      	N/A	N/A
0.35                	N/A	N/A
0.352083333333      	N/A	N/A
0.354166666667      	N/A	N/A
0.35625             	N/A	N/A
0.358333333333      	N/A	N/A
0.360416666667      	N/A	N/A
0.3625              	N/A	N/A
0.364583333333      	N/A	N/A
0.366666666667      	N/A	N/A
0.36875             	N/A	N/A
0.370833333333      	N/A	N/A
0.372916666667      	N/A	N/A
0.375               	N/A	N/A
0.377083333333      	N/A	N/A
0.379166666667      	N/A	N/A
0.38125             	N/A	N/A
0.383333333333      	N/A	N/A
0.385416666667      	N/A	N/A
0.3875              	N/A	N/A
0.389583333333      	N/A	N/A
0.391666666667      	N/A	N/A
0.39375             	N/A	N/A
0.395833333333      	N/A	N/A
0.397916666667      	N/A	N/A
0.4                 	N/A	N/A
0.402083333333      	N/A	N/A
0.404166666667      	N/A	N/A
0.40625             	N/A	N/A
0.408333333333      	N/A	N/A
0.410416666667      	N/A	N/A
0.4125              	N/A	N/A
0.414583333333      	N/A	N/A
0.416666666667      	N/A	N/A
0.41875             	N/A	N/A
0.420833333333      	N/A	N/A
0.422916666667      	N/A	N/A
0.425               	N/A	N/A
0.427083333333      	N/A	N/A
0.429166666667      	N/A	N/A
0.43125             	N/A	N/A
0.433333333333      	N/A	N/A
0.435416666667      	N/A	N/A
0.4375              	N/A	N/A
0.439583333333      	N/A	N/A
0.441666666667      	N/A	N/A
0.44375             	N/A	N/A
0.445833333333      	N/A	N/A
0.447916666667      	N/A	N/A
0.45                	N/A	N/A
0.452083333333      	N/A	N/A
0.454166666667      	N/A	N/A
0.45625             	N/A	N/A
0.458333333333      	N/A	N/A
0.460416666667      	N/A	N/A
0.4625              	N/A	N/A
0.464583333333      	N/A	N/A
0.466666666667      	N/A	N/A
0.46875             	N/A	N/A
0.470833333333      	N/A	N/A
0.472916666667      	N/A	N/A
0.475               	N/A	N/A
0.477083333333      	N/A	N/A
0.479166666667      	N/A	N/A
0.48125             	N/A	N/A
0.483333333333      	N/A	N/A
0.485416666667      	N/A	N/A
0.4875              	N/A	N/A
0.489583333333      	N/A	N/A
0.491666666667      	N/A	N/A
0.49375             	N/A	N/A
0.495833333333      	N/A	N/A
0.497916666667      	N/A	N/A
0.5                 	N/A	N/A
0.502083333333      	N/A	N/A
0.504166666667      	N/A	N/A
0.50625             	N/A	N/A
0.508333333333      	N/A	N/A
0.510416666667      	N/A	N/A
0.5125              	N/A	N/A
0.514583333333      	N/A	N/A
0.516666666667      	N/A	N/A
0.51875             	N/A	N/A
0.520833333333      	N/A	N/A
0.522916666667      	N/A	N/A
0.525               	N/A	N/A
0.527083333333      	N/A	N/A
0.529166666667      	N/A	N/A
0.53125             	N/A	N/A
0.533333333333      	N/A	N/A
0.535416666667      	N/A	N/A
0.5375              	N/A	N/A
0.539583333333      	N/A	N/A
0.541666666667      	N/A	N/A
0.54375             	N/A	N/A
0.545833333333      	N/A	N/A
0.547916666667      	N/A	N/A
0.55                	N/A	N/A
0.552083333333      	N/A	N/A
0.554166666667      	N/A	N/A
0.55625             	N/A	N/A
0.558333333333      	N/A	N/A
0.560416666667      	N/A	N/A
0.5625              	N/A	N/A
0.564583333333      	N/A	N/A
0.566666666667      	N/A	N/A
0.56875             	N/A	N/A
0.570833333333      	N/A	N/A
0.572916666667      	N/A	N/A
0.575               	N/A	N/A
0.577083333333      	N/A	N/A
0.579166666667      	N/A	N/A
0.58125             	N/A	N/A
0.583333333333      	N/A	N/A
0.585416666667      	N/A	N/A
0.5875              	N/A	N/A
0.589583333333      	N/A	N/A
0.591666666667      	N/A	N/A
0.59375             	N/A	N/A
0.595833333333      	N/A	N/A
0.597916666667      	N/A	N/A
0.6                 	N/A	N/A
0.602083333333      	N/A	N/A
0.604166666667      	N/A	N/A
0.60625             	N/A	N/A
0.608333333333      	N/A	N/A
0.610416666667      	N/A	N/A
0.6125              	N/A	N/A
0.614583333333      	N/A	N/A
0.616666666667      	N/A	N/A
0.61875             	N/A	N/A
0.620833333333      	N/A	N/A
0.622916666667      	N/A	N/A
0.625               	N/A	N/A
0.627083333333      	N/A	N/A
0.629166666667      	N/A	N/A
0.63125             	N/A	N/A
0.633333333333      	N/A	N/A
0.635416666667      	N/A	N/A
0.6375              	N/A	N/A
0.639583333333      	N/A	N/A
0.641666666667      	N/A	N/A
0.64375             	N/A	N/A
0.645833333333      	N/A	N/A
0.647916666667      	N/A	N/A
0.65                	N/A	N/A
0.652173913043      	N/A	N/A
0.654347826087      	N/A	N/A
0.65652173913       	N/A	N/A
0.658695652174      	N/A	N/A
0.660869565217      	N/A	N/A
0.663043478261      	N/A	N/A
0.665217391304      	N/A	N/A
0.667391304348      	N/A	N/A
0.669565217391      	N/A	N/A
0.671739130435      	N/A	N/A
0.673913043478      	N/A	N/A
0.676086956522      	N/A	N/A
0.678260869565      	N/A	N/A
0.680434782609      	N/A	N/A
0.682608695652      	N/A	N/A
0.684782608696      	N/A	N/A
0.686956521739      	N/A	N/A
0.689130434783      	N/A	N/A
0.691304347826      	N/A	N/A
0.69347826087       	N/A	N/A
0.695652173913      	N/A	N/A
0.697826086957      	N/A	N/A
0.7                 	N/A	N/A
0.702173913043      	N/A	N/A
0.704347826087      	N/A	N/A
0.70652173913       	N/A	N/A
0.708695652174      	N/A	N/A
0.710869565217      	N/A	N/A
0.713043478261      	N/A	N/A
0.715217391304      	N/A	N/A
0.717391304348      	N/A	N/A
0.719565217391      	N/A	N/A
0.721739130435      	N/A	N/A
0.723913043478      	N/A	N/A
0.726086956522      	N/A	N/A
0.728260869565      	N/A	N/A
0.730434782609      	N/A	N/A
0.732608695652      	N/A	N/A
0.734782608696      	N/A	N/A
0.736956521739      	N/A	N/A
0.739130434783      	N/A	N/A
0.741304347826      	N/A	N/A
0.74347826087       	N/A	N/A
0.745652173913      	N/A	N/A
0.747826086957      	N/A	N/A
0.75                	N/A	N/A
0.752173913043      	N/A	N/A
0.754347826087      	N/A	N/A
0.75652173913       	N/A	N/A
0.758695652174      	N/A	N/A
0.760869565217      	N/A	N/A
0.763043478261      	N/A	N/A
0.765217391304      	N/A	N/A
0.767391304348      	N/A	N/A
0.769565217391      	N/A	N/A
0.771739130435      	N/A	N/A
0.773913043478      	N/A	N/A
0.776086956522      	N/A	N/A
0.778260869565      	N/A	N/A
0.780434782609      	N/A	N/A
0.782608695652      	N/A	N/A
0.784782608696      	N/A	N/A
0.786956521739      	N/A	N/A
0.789130434783      	N/A	N/A
0.791304347826      	N/A	N/A
0.79347826087       	N/A	N/A
0.795652173913      	N/A	N/A
0.797826086957      	N/A	N/A
0.8                 	N/A	N/A
0.802173913043      	N/A	N/A
0.804347826087      	N/A	N/A
0.80652173913       	N/A	N/A
0.808695652174      	N/A	N/A
0.810869565217      	N/A	N/A
0.813043478261      	N/A	N/A
0.815217391304      	N/A	N/A
0.817391304348      	N/A	N/A
0.819565217391      	N/A	N/A
0.821739130435      	N/A	N/A
0.823913043478      	N/A	N/A
0.826086956522      	N/A	N/A
0.828260869565      	N/A	N/A
0.830434782609      	N/A	N/A
0.832608695652      	N/A	N/A
0.834782608696      	N/A	N/A
0.836956521739      	N/A	N/A
0.839130434783      	N/A	N/A
0.841304347826      	N/A	N/A
0.84347826087       	N/A	N/A
0.845652173913      	N/A	N/A
0.847826086957      	N/A	N/A
0.85                	N/A	N/A
0.852173913043      	N/A	N/A
0.854347826087      	N/A	N/A
0.85652173913       	N/A	N/A
0.858695652174      	N/A	N/A
0.860869565217      	N/A	N/A
0.863043478261      	N/A	N/A
0.865217391304      	N/A	N/A
0.867391304348      	N/A	N/A
0.869565217391      	N/A	N/A
0.871739130435      	N/A	N/A
0.873913043478      	N/A	N/A
0.876086956522      	N/A	N/A
0.878260869565      	N/A	N/A
0.880434782609      	N/A	N/A
0.882608695652      	N/A	N/A
0.884782608696      	N/A	N/A
0.886956521739      	N/A	N/A
0.889130434783      	N/A	N/A
0.891304347826      	N/A	N/A
0.89347826087       	N/A	N/A
0.895652173913      	N/A	N/A
0.897826086957      	N/A	N/A
0.9                 	N/A	N/A
0.902173913043      	N/A	N/A
0.904347826087      	N/A	N/A
0.90652173913       	N/A	N/A
0.908695652174      	N/A	N/A
0.910869565217      	N/A	N/A
0.913043478261      	N/A	N/A
0.915217391304      	N/A	N/A
0.917391304348      	N/A	N/A
0.919565217391      	N/A	N/A
0.921739130435      	N/A	N/A
0.923913043478      	N/A	N/A
0.926086956522      	N/A	N/A
0.928260869565      	N/A	N/A
0.930434782609      	N/A	N/A
0.932608695652      	N/A	N/A
0.934782608696      	N/A	N/A
0.936956521739      	N/A	N/A
0.939130434783      	N/A	N/A
0.941304347826      	N/A	N/A
0.94347826087       	N/A	N/A
0.945652173913      	N/A	N/A
0.947826086957      	N/A	N/A
0.95                	N/A	N/A
0.952173913043      	N/A	N/A
0.954347826087      	N/A	N/A
0.95652173913       	N/A	N/A
0.958695652174      	N/A	N/A
0.960869565217      	N/A	N/A
0.963043478261      	N/A	N/A
0.965217391304      	N/A	N/A
0.967391304348      	N/A	N/A
0.969565217391      	N/A	N/A
0.971739130435      	N/A	N/A
0.973913043478      	N/A	N/A
0.976086956522      	N/A	N/A
0.978260869565      	N/A	N/A
0.980434782609      	N/A	N/A
0.982608695652      	N/A	N/A
0.984782608696      	N/A	N/A
0.986956521739      	N/A	N/A
0.989130434783      	N/A	N/A
0.991304347826      	N/A	N/A
0.99347826087       	N/A	N/A
0.995652173913      	N/A	N/A
0.997826086957      	N/A	N/A
1                   	N/A	N/A
1.00217391304       	N/A	N/A
1.00434782609       	N/A	N/A
1.00652173913       	N/A	N/A
1.00869565217       	N/A	N/A
1.01086956522       	N/A	N/A
1.01304347826       	N/A	N/A
1.0152173913        	N/A	N/A
1.01739130435       	N/A	N/A
1.01956521739       	N/A	N/A
1.02173913043       	N/A	N/A
1.02391304348       	N/A	N/A
1.02608695652       	N/A	N/A
1.02826086957       	N/A	N/A
1.03043478261       	N/A	N/A
1.03260869565       	N/A	N/A
1.0347826087        	N/A	N/A
1.03695652174       	N/A	N/A
1.03913043478       	N/A	N/A
1.04130434783       	N/A	N/A
1.04347826087       	N/A	N/A
1.04565217391       	N/A	N/A
1.04782608696       	N/A	N/A
1.05                	N/A	N/A
1.05217391304       	N/A	N/A
1.05434782609       	N/A	N/A
1.05652173913       	N/A	N/A
1.05869565217       	N/A	N/A
1.06086956522       	N/A	N/A
1.06304347826       	N/A	N/A
1.0652173913        	N/A	N/A
1.06739130435       	N/A	N/A
1.06956521739       	N/A	N/A
1.07173913043       	N/A	N/A
1.07391304348       	N/A	N/A
1.07608695652       	N/A	N/A
1.07826086957       	N/A	N/A
1.08043478261       	N/A	N/A
1.08260869565       	N/A	N/A
1.0847826087        	N/A	N/A
1.08695652174       	N/A	N/A
1.08913043478       	N/A	N/A
1.09130434783       	N/A	N/A
1.09347826087       	N/A	N/A
1.09565217391       	N/A	N/A
1.09782608696       	N/A	N/A
1.1                 	N/A	N/A
1.10227272727       	N/A	N/A
1.10454545455       	N/A	N/A
1.10681818182       	N/A	N/A
1.10909090909       	N/A	N/A
1.11136363636       	N/A	N/A
1.11363636364       	N/A	N/A
1.11590909091       	N/A	N/A
1.11818181818       	N/A	N/A
1.12045454545       	N/A	N/A
1.12272727273       	N/A	N/A
1.125               	N/A	N/A
1.12727272727       	N/A	N/A
1.12954545455       	N/A	N/A
1.13181818182       	N/A	N/A
1.13409090909       	N/A	N/A
1.13636363636       	N/A	N/A
1.13863636364       	N/A	N/A
1.14090909091       	N/A	N/A
1.14318181818       	N/A	N/A
1.14545454545       	N/A	N/A
1.14772727273       	N/A	N/A
1.15                	N/A	N/A
1.15227272727       	N/A	N/A
1.15454545455       	N/A	N/A
1.15681818182       	N/A	N/A
1.15909090909       	N/A	N/A
1.16136363636       	N/A	N/A
1.16363636364       	N/A	N/A
1.16590909091       	N/A	N/A
1.16818181818       	N/A	N/A
1.17045454545       	N/A	N/A
1.17272727273       	N/A	N/A
1.175               	N/A	N/A
1.17727272727       	N/A	N/A
1.17954545455       	N/A	N/A
1.18181818182       	N/A	N/A
1.18409090909       	N/A	N/A
1.18636363636       	N/A	N/A
1.18863636364       	N/A	N/A
1.19090909091       	N/A	N/A
1.19318181818       	N/A	N/A
1.19545454545       	N/A	N/A
1.19772727273       	N/A	N/A
1.2                 	N/A	N/A
1.20227272727       	N/A	N/A
1.20454545455       	N/A	N/A
1.20681818182       	N/A	N/A
1.20909090909       	N/A	N/A
1.21136363636       	N/A	N/A
1.21363636364       	N/A	N/A
1.21590909091       	N/A	N/A
1.21818181818       	N/A	N/A
1.22045454545       	N/A	N/A
1.22272727273       	N/A	N/A
1.225               	N/A	N/A
1.22727272727       	N/A	N/A
1.22954545455       	N/A	N/A
1.23181818182       	N/A	N/A
1.23409090909       	N/A	N/A
1.23636363636       	N/A	N/A
1.23863636364       	N/A	N/A
1.24090909091       	N/A	N/A
1.24318181818       	N/A	N/A
1.24545454545       	N/A	N/A
1.24772727273       	N/A	N/A
1.25                	N/A	N/A
1.25227272727       	N/A	N/A
1.25454545455       	N/A	N/A
1.25681818182       	N/A	N/A
1.25909090909       	N/A	N/A
1.26136363636       	N/A	N/A
1.26363636364       	N/A	N/A
1.26590909091       	N/A	N/A
1.26818181818       	N/A	N/A
1.27045454545       	N/A	N/A
1.27272727273       	N/A	N/A
1.275               	N/A	N/A
1.27727272727       	N/A	N/A
1.27954545455       	N/A	N/A
1.28181818182       	N/A	N/A
1.28409090909       	N/A	N/A
1.28636363636       	N/A	N/A
1.28863636364       	N/A	N/A
1.29090909091       	N/A	N/A
1.29318181818       	N/A	N/A
1.29545454545       	N/A	N/A
1.29772727273       	N/A	N/A
1.3                 	N/A	N/A
1.30227272727       	N/A	N/A
1.30454545455       	N/A	N/A
1.30681818182       	N/A	N/A
1.30909090909       	N/A	N/A
1.31136363636       	N/A	N/A
1.31363636364       	N/A	N/A
1.31590909091       	N/A	N/A
1.31818181818       	N/A	N/A
1.32045454545       	N/A	N/A
1.32272727273       	N/A	N/A
1.325               	N/A	N/A
1.32727272727       	N/A	N/A
1.32954545455       	N/A	N/A
1.33181818182       	N/A	N/A
1.33409090909       	N/A	N/A
1.33636363636       	N/A	N/A
1.33863636364       	N/A	N/A
1.34090909091       	N/A	N/A
1.34318181818       	N/A	N/A
1.34545454545       	N/A	N/A
1.34772727273       	N/A	N/A
1.35                	N/A	N/A
1.35227272727       	N/A	N/A
1.35454545455       	N/A	N/A
1.35681818182       	N/A	N/A
1.35909090909       	N/A	N/A
1.36136363636       	N/A	N/A
1.36363636364       	N/A	N/A
1.36590909091       	N/A	N/A
1.36818181818       	N/A	N/A
1.37045454545       	N/A	N/A
1.37272727273       	N/A	N/A
1.375               	N/A	N/A
1.37727272727       	N/A	N/A
1.37954545455       	N/A	N/A
1.38181818182       	N/A	N/A
1.38409090909       	N/A	N/A
1.38636363636       	N/A	N/A
1.38863636364       	N/A	N/A
1.39090909091       	N/A	N/A
1.39318181818       	N/A	N/A
1.39545454545       	N/A	N/A
1.39772727273       	N/A	N/A
1.4                 	N/A	N/A
1.40227272727       	N/A	N/A
1.40454545455       	N/A	N/A
1.40681818182       	N/A	N/A
1.40909090909       	N/A	N/A
1.41136363636       	N/A	N/A
1.41363636364       	N/A	N/A
1.41590909091       	N/A	N/A
1.41818181818       	N/A	N/A
1.42045454545       	N/A	N/A
1.42272727273       	N/A	N/A
1.425               	N/A	N/A
1.42727272727       	N/A	N/A
1.42954545455       	N/A	N/A
1.43181818182       	N/A	N/A
1.43409090909       	N/A	N/A
1.43636363636       	N/A	N/A
1.43863636364       	N/A	N/A
1.44090909091       	N/A	N/A
1.44318181818       	N/A	N/A
1.44545454545       	N/A	N/A
1.44772727273       	N/A	N/A
1.45                	N/A	N/A
1.45227272727       	N/A	N/A
1.45454545455       	N/A	N/A
1.45681818182       	N/A	N/A
1.45909090909       	N/A	N/A
1.46136363636       	N/A	N/A
1.46363636364       	N/A	N/A
1.46590909091       	N/A	N/A
1.46818181818       	N/A	N/A
1.47045454545       	N/A	N/A
1.47272727273       	N/A	N/A
1.475               	N/A	N/A
1.47727272727       	N/A	N/A
1.47954545455       	N/A	N/A
1.48181818182       	N/A	N/A
1.48409090909       	N/A	N/A
1.48636363636       	N/A	N/A
1.48863636364       	N/A	N/A
1.49090909091       	N/A	N/A
1.49318181818       	N/A	N/A
1.49545454545       	N/A	N/A
1.49772727273       	N/A	N/A
1.5                 	N/A	N/A
1.50227272727       	N/A	N/A
1.50454545455       	N/A	N/A
1.50681818182       	N/A	N/A
1.50909090909       	N/A	N/A
1.51136363636       	N/A	N/A
1.51363636364       	N/A	N/A
1.51590909091       	N/A	N/A
1.51818181818       	N/A	N/A
1.52045454545       	N/A	N/A
1.52272727273       	N/A	N/A
1.525               	N/A	N/A
1.52727272727       	N/A	N/A
1.52954545455       	N/A	N/A
1.53181818182       	N/A	N/A
1.53409090909       	N/A	N/A
1.53636363636       	N/A	N/A
1.53863636364       	N/A	N/A
1.54090909091       	N/A	N/A
1.54318181818       	N/A	N/A
1.54545454545       	N/A	N/A
1.54772727273       	N/A	N/A
1.55                	N/A	N/A
1.55238095238       	N/A	N/A
1.55476190476       	N/A	N/A
1.55714285714       	N/A	N/A
1.55952380952       	N/A	N/A
1.5619047619        	N/A	N/A
1.56428571429       	N/A	N/A
1.56666666667       	N/A	N/A
1.56904761905       	N/A	N/A
1.57142857143       	N/A	N/A
1.57380952381       	N/A	N/A
1.57619047619       	N/A	N/A
1.57857142857       	N/A	N/A
1.58095238095       	N/A	N/A
1.58333333333       	N/A	N/A
1.58571428571       	N/A	N/A
1.5880952381        	N/A	N/A
1.59047619048       	N/A	N/A
1.59285714286       	N/A	N/A
1.59523809524       	N/A	N/A
1.59761904762       	N/A	N/A
1.6                 	N/A	N/A
1.60238095238       	N/A	N/A
1.60476190476       	N/A	N/A
1.60714285714       	N/A	N/A
1.60952380952       	N/A	N/A
1.6119047619        	N/A	N/A
1.61428571429       	N/A	N/A
1.61666666667       	N/A	N/A
1.61904761905       	N/A	N/A
1.62142857143       	N/A	N/A
1.62380952381       	N/A	N/A
1.62619047619       	N/A	N/A
1.62857142857       	N/A	N/A
1.63095238095       	N/A	N/A
1.63333333333       	N/A	N/A
1.63571428571       	N/A	N/A
1.6380952381        	N/A	N/A
1.64047619048       	N/A	N/A
1.64285714286       	N/A	N/A
1.64523809524       	N/A	N/A
1.64761904762       	N/A	N/A
1.65                	N/A	N/A
1.65238095238       	N/A	N/A
1.65476190476       	N/A	N/A
1.65714285714       	N/A	N/A
1.65952380952       	N/A	N/A
1.6619047619        	N/A	N/A
1.66428571429       	N/A	N/A
1.66666666667       	N/A	N/A
1.66904761905       	N/A	N/A
1.67142857143       	N/A	N/A
1.67380952381       	N/A	N/A
1.67619047619       	N/A	N/A
1.67857142857       	N/A	N/A
1.68095238095       	N/A	N/A
1.68333333333       	N/A	N/A
1.68571428571       	N/A	N/A
1.6880952381        	N/A	N/A
1.69047619048       	N/A	N/A
1.69285714286       	N/A	N/A
1.69523809524       	N/A	N/A
1.69761904762       	N/A	N/A
1.7                 	N/A	N/A
1.70238095238       	N/A	N/A
1.70476190476       	N/A	N/A
1.70714285714       	N/A	N/A
1.70952380952       	N/A	N/A
1.7119047619        	N/A	N/A
1.71428571429       	N/A	N/A
1.71666666667       	N/A	N/A
1.71904761905       	N/A	N/A
1.72142857143       	N/A	N/A
1.72380952381       	N/A	N/A
1.72619047619       	N/A	N/A
1.72857142857       	N/A	N/A
1.73095238095       	N/A	N/A
1.73333333333       	N/A	N/A
1.73571428571       	N/A	N/A
1.7380952381        	N/A	N/A
1.74047619048       	N/A	N/A
1.74285714286       	N/A	N/A
1.74523809524       	N/A	N/A
1.74761904762       	N/A	N/A
1.75                	N/A	N/A
1.75238095238       	N/A	N/A
1.75476190476       	N/A	N/A
1.75714285714       	N/A	N/A
1.75952380952       	N/A	N/A
1.7619047619        	N/A	N/A
1.76428571429       	N/A	N/A
1.76666666667       	N/A	N/A
1.76904761905       	N/A	N/A
1.77142857143       	N/A	N/A
1.77380952381       	N/A	N/A
1.77619047619       	N/A	N/A
1.77857142857       	N/A	N/A
1.78095238095       	N/A	N/A
1.78333333333       	N/A	N/A
1.78571428571       	N/A	N/A
1.7880952381        	N/A	N/A
1.79047619048       	N/A	N/A
1.79285714286       	N/A	N/A
1.79523809524       	N/A	N/A
1.79761904762       	N/A	N/A
1.8                 	N/A	N/A
1.80238095238       	N/A	N/A
1.80476190476       	N/A	N/A
1.80714285714       	N/A	N/A
1.80952380952       	N/A	N/A
1.8119047619        	N/A	N/A
1.81428571429       	N/A	N/A
1.81666666667       	N/A	N/A
1.81904761905       	N/A	N/A
1.82142857143       	N/A	N/A
1.82380952381       	N/A	N/A
1.82619047619       	N/A	N/A
1.82857142857       	N/A	N/A
1.83095238095       	N/A	N/A
1.83333333333       	N/A	N/A
1.83571428571       	N/A	N/A
1.8380952381        	N/A	N/A
1.84047619048       	N/A	N/A
1.84285714286       	N/A	N/A
1.84523809524       	N/A	N/A
1.84761904762       	N/A	N/A
1.85                	N/A	N/A
1.85238095238       	N/A	N/A
1.85476190476       	N/A	N/A
1.85714285714       	N/A	N/A
1.85952380952       	N/A	N/A
1.8619047619        	N/A	N/A
1.86428571429       	N/A	N/A
1.86666666667       	N/A	N/A
1.86904761905       	N/A	N/A
1.87142857143       	N/A	N/A
1.87380952381       	N/A	N/A
1.87619047619       	N/A	N/A
1.87857142857       	N/A	N/A
1.88095238095       	N/A	N/A
1.88333333333       	N/A	N/A
1.88571428571       	N/A	N/A
1.8880952381        	N/A	N/A
1.89047619048       	N/A	N/A
1.89285714286       	N/A	N/A
1.89523809524       	N/A	N/A
1.89761904762       	N/A	N/A
1.9                 	N/A	N/A
1.90238095238       	N/A	N/A
1.90476190476       	N/A	N/A
1.90714285714       	N/A	N/A
1.90952380952       	N/A	N/A
1.9119047619        	N/A	N/A
1.91428571429       	N/A	N/A
1.91666666667       	N/A	N/A
1.91904761905       	N/A	N/A
1.92142857143       	N/A	N/A
1.92380952381       	N/A	N/A
1.92619047619       	N/A	N/A
1.92857142857       	N/A	N/A
1.93095238095       	N/A	N/A
1.93333333333       	N/A	N/A
1.93571428571       	N/A	N/A
1.9380952381        	N/A	N/A
1.94047619048       	N/A	N/A
1.94285714286       	N/A	N/A
1.94523809524       	N/A	N/A
1.94761904762       	N/A	N/A
1.95                	N/A	N/A
1.95238095238       	N/A	N/A
1.95476190476       	N/A	N/A
1.95702380952       	N/A	N/A
1.95928571429       	N/A	N/A
1.96154761905       	N/A	N/A
1.96380952381       	N/A	N/A
1.96607142857       	N/A	N/A
1.96833333333       	N/A	N/A
1.9705952381        	N/A	N/A
1.97285714286       	N/A	N/A
1.97511904762       	N/A	N/A
1.97738095238       	N/A	N/A
1.97964285714       	N/A	N/A
1.9819047619        	N/A	N/A
1.98416666667       	N/A	N/A
1.98642857143       	N/A	N/A
1.98869047619       	N/A	N/A
1.99095238095       	N/A	N/A
1.99321428571       	N/A	N/A
1.99547619048       	N/A	N/A
1.99773809524       	N/A	N/A
2                   	N/A	N/A
2.00227272727       	N/A	N/A
2.00454545455       	N/A	N/A
2.00681818182       	N/A	N/A
2.00909090909       	N/A	N/A
2.01136363636       	N/A	N/A
2.01363636364       	N/A	N/A
2.01590909091       	N/A	N/A
2.01818181818       	N/A	N/A
2.02045454545       	N/A	N/A
2.02272727273       	N/A	N/A
2.025               	N/A	N/A
2.02727272727       	N/A	N/A
2.02954545455       	N/A	N/A
2.03181818182       	N/A	N/A
2.03409090909       	N/A	N/A
2.03636363636       	N/A	N/A
2.03863636364       	N/A	N/A
2.04090909091       	N/A	N/A
2.04318181818       	N/A	N/A
2.04545454545       	N/A	N/A
2.04772727273       	N/A	N/A
2.05                	N/A	N/A
2.05227272727       	N/A	N/A
2.05454545455       	N/A	N/A
2.05681818182       	N/A	N/A
2.05909090909       	N/A	N/A
2.06136363636       	N/A	N/A
2.06363636364       	N/A	N/A
2.06590909091       	N/A	N/A
2.06818181818       	N/A	N/A
2.07045454545       	N/A	N/A
2.07272727273       	N/A	N/A
2.075               	N/A	N/A
2.07727272727       	N/A	N/A
2.07954545455       	N/A	N/A
2.08181818182       	N/A	N/A
2.08409090909       	N/A	N/A
2.08636363636       	N/A	N/A
2.08863636364       	N/A	N/A
2.09090909091       	N/A	N/A
2.09318181818       	N/A	N/A
2.09545454545       	N/A	N/A
2.09772727273       	N/A	N/A
2.1                 	N/A	N/A
2.10227272727       	N/A	N/A
2.10454545455       	N/A	N/A
2.10681818182       	N/A	N/A
2.10909090909       	N/A	N/A
2.11136363636       	N/A	N/A
2.11363636364       	N/A	N/A
2.11590909091       	N/A	N/A
2.11818181818       	N/A	N/A
2.12045454545       	N/A	N/A
2.12272727273       	N/A	N/A
2.125               	N/A	N/A
2.12727272727       	N/A	N/A
2.12954545455       	N/A	N/A
2.13181818182       	N/A	N/A
2.13409090909       	N/A	N/A
2.13636363636       	N/A	N/A
2.13863636364       	N/A	N/A
2.14090909091       	N/A	N/A
2.14318181818       	N/A	N/A
2.14545454545       	N/A	N/A
2.14772727273       	N/A	N/A
2.15                	N/A	N/A
2.15227272727       	N/A	N/A
2.15454545455       	N/A	N/A
2.15681818182       	N/A	N/A
2.15909090909       	N/A	N/A
2.16136363636       	N/A	N/A
2.16363636364       	N/A	N/A
2.16590909091       	N/A	N/A
2.16818181818       	N/A	N/A
2.17045454545       	N/A	N/A
2.17272727273       	N/A	N/A