# Residuals         
# Time              	Ux                  	Uy                  	Uz                  	p                   
0                   	N/A	N/A
1                   	3.155940489267e-01	9.999999999893e-01	1.000000000000e+00	9.999999999856e-01
2                   	4.528241726599e-01	7.280538176932e-01	5.840151477569e-01	6.168338581694e-03
3                   	6.328785065324e-01	9.630981243640e-02	5.460323478944e-02	6.422051099110e-03
4                   	2.416554403346e-01	4.678935754236e-02	9.841990670482e-03	3.949492887261e-01
5                   	2.062897829609e-02	1.504493058783e-02	3.917005807773e-02	1.889968888322e-02
6                   	6.741550330636e-03	1.330500469543e-01	7.785416338788e-02	1.093269599376e-02
7                   	9.648651525800e-03	1.194930667919e-01	1.020642403522e-01	5.511888589169e-02
8                   	1.026847697154e-02	3.540006512248e-02	4.492907085482e-02	2.382641598638e-01
9                   	1.001984970194e-02	3.321386169455e-02	2.641082193127e-02	2.530480476373e-02
10                  	1.051985411863e-02	1.516560190105e-01	1.539902258605e-02	2.065408808284e-02
11                  	8.794813947090e-03	1.318419210700e-01	8.256659446132e-03	5.425101119622e-02
12                  	5.264774673608e-03	3.923531390479e-02	4.274750519517e-03	1.915907382739e-01
13                  	2.891084097447e-03	4.611059737043e-02	2.887138844729e-03	8.776697316650e-02
14                  	2.719509646262e-03	1.838767015150e-01	3.146269725060e-03	5.807109880163e-02
15                  	3.195890739045e-03	8.312194537342e-02	3.010968145915e-03	1.654460268945e-01
16                  	3.472392427267e-03	4.219605724462e-02	2.682042512940e-03	7.046800109628e-02
17                  	3.550913622608e-03	3.024959423993e-02	2.366633142770e-03	3.324629314369e-02
18                  	3.578457102723e-03	3.146668135381e-02	1.972284255532e-03	2.308744437381e-02
19                  	3.532677368109e-03	2.920083445186e-02	1.671654010787e-03	2.286191621701e-02
20                  	3.472033798453e-03	2.449561626357e-02	1.650203764047e-03	2.290458498813e-02
21                  	3.512023592339e-03	2.357336933985e-02	1.624459316043e-03	2.013483997517e-02
22                  	3.698756685528e-03	2.062208480584e-02	1.512518712814e-03	1.674411718587e-02
23                  	3.953309623382e-03	1.580945570829e-02	1.365320364498e-03	1.489711308328e-02
24                  	4.244398184619e-03	1.146250461734e-02	1.215587131874e-03	1.409889563522e-02
25                  	4.546211346150e-03	8.230249555840e-03	1.109560355331e-03	1.247724804701e-02
26                  	4.873585741705e-03	7.096358898296e-03	1.087980348804e-03	1.047373156701e-02
27                  	5.231447337969e-03	8.414107457883e-03	1.134186747868e-03	8.645045826519e-03
28                  	5.641428297377e-03	8.120103576727e-03	1.139332966720e-03	7.292221696239e-03
29                  	6.142394921465e-03	7.202492228107e-03	1.102286740715e-03	6.452325965515e-03
30                  	6.722715822816e-03	6.258072603774e-03	1.026165134905e-03	6.292113796601e-03
31                  	7.450608131378e-03	4.870408541326e-03	9.608807786936e-04	5.940890556247e-03
32                  	8.372621852630e-03	4.052962835899e-03	9.168189127657e-04	5.351097431238e-03
33                  	9.579346756852e-03	4.051165969351e-03	9.124239329454e-04	4.614620193813e-03
34                  	1.117938875566e-02	4.116555624913e-03	9.110637754892e-04	3.868677815579e-03
35                  	1.336660444775e-02	3.728161367703e-03	8.951290356993e-04	3.321126414446e-03
36                  	1.623119059991e-02	3.308366248694e-03	8.717809040535e-04	3.052106455479e-03
37                  	1.640241964944e-02	2.823933005256e-03	8.432574486670e-04	2.940044497189e-03
38                  	1.371650996534e-02	2.416634932073e-03	8.186023331641e-04	2.722176175271e-03
39                  	1.144280627338e-02	2.292815062914e-03	8.028611220006e-04	2.420723376139e-03
40                  	9.707163273533e-03	2.358144253773e-03	7.973240987172e-04	2.100273552507e-03
41                  	8.368302955545e-03	2.347314104044e-03	7.864419797513e-04	1.811954151817e-03
42                  	7.342067667542e-03	2.244396559850e-03	7.694927692115e-04	1.616031766786e-03
43                  	6.570580274109e-03	2.059392725932e-03	7.504806459519e-04	1.529815410134e-03
44                  	5.848822889663e-03	1.842470928808e-03	7.340069549435e-04	1.445884490012e-03
45                  	5.315947059488e-03	1.680706476274e-03	7.182799156829e-04	1.328138787523e-03
46                  	4.847958796582e-03	1.614600699710e-03	7.085853685079e-04	1.191044463860e-03
47                  	4.461923261875e-03	1.585032342032e-03	6.994463904033e-04	1.054527331635e-03
48                  	4.137230715103e-03	1.544610396370e-03	6.891609576978e-04	9.335107802051e-04
49                  	3.868871131723e-03	1.473999023910e-03	6.777035002112e-04	8.625835996038e-04
50                  	3.646157854641e-03	1.407397509425e-03	6.656198537734e-04	8.259216678320e-04
51                  	3.421390609514e-03	1.354425878222e-03	6.596095068867e-04	7.728666611590e-04
52                  	3.235324197568e-03	1.321995366849e-03	6.556152857511e-04	7.100532072832e-04
53                  	3.069785165808e-03	1.301799347794e-03	6.498720050564e-04	6.448126225798e-04
54                  	2.910878372026e-03	1.272038430831e-03	6.412561319576e-04	5.861292307230e-04
55                  	2.770112601439e-03	1.237937279691e-03	6.265071090424e-04	5.389496384202e-04
56                  	2.648475197379e-03	1.188744259166e-03	6.159539806207e-04	5.082457791180e-04
57                  	2.519059331466e-03	1.151138067655e-03	6.100407827990e-04	4.748156132151e-04
58                  	2.440863440660e-03	1.131907234594e-03	6.104095810061e-04	4.450319949404e-04
59                  	2.357737200893e-03	1.113336782940e-03	6.083183172667e-04	4.187663023511e-04
60                  	2.284625989342e-03	1.089415295100e-03	5.982014663104e-04	3.899553912214e-04
61                  	2.214090870535e-03	1.071171998389e-03	5.931411553601e-04	3.571414140104e-04
62                  	2.130123545239e-03	1.052392424063e-03	5.916195810968e-04	3.295861230338e-04
63                  	2.067113569044e-03	1.030484289191e-03	5.879503816293e-04	3.157648769438e-04
64                  	2.004608953173e-03	1.002848701236e-03	5.781461704144e-04	3.058594590661e-04
65                  	1.937746854515e-03	9.708956912444e-04	5.635112933669e-04	2.908450751552e-04
66                  	1.847473334720e-03	9.369774404847e-04	5.463038227389e-04	2.675698021809e-04
67                  	1.818370536753e-03	9.347746891357e-04	5.498162153627e-04	2.493593980885e-04
68                  	1.793664484609e-03	9.301804168487e-04	5.526327595769e-04	2.406869300778e-04
69                  	1.766631192207e-03	9.214120184314e-04	5.516712580385e-04	2.332961000720e-04
70                  	1.715388699628e-03	9.137467222401e-04	5.498033156518e-04	2.185456871354e-04
71                  	1.684078910089e-03	8.991399021728e-04	5.460964969475e-04	2.081808538349e-04
72                  	1.660831006877e-03	8.828320818364e-04	5.393658379578e-04	2.024338733675e-04
73                  	1.625332369554e-03	8.682169034789e-04	5.335583071103e-04	1.917826287846e-04
74                  	1.580033749602e-03	8.556860065199e-04	5.294090872402e-04	1.817179540911e-04
75                  	1.561437053585e-03	8.418755808886e-04	5.230935749424e-04	1.765351848220e-04
76                  	1.529952377649e-03	8.248954537503e-04	5.162450769557e-04	1.705064368597e-04
77                  	1.498850618573e-03	8.166439935802e-04	5.135370588630e-04	1.610047075299e-04
78                  	1.473073524545e-03	8.012809170514e-04	5.069179142324e-04	1.562542162249e-04
79                  	1.457109205133e-03	7.837049126939e-04	4.988918425954e-04	1.501105816730e-04
80                  	1.424423069941e-03	7.728473661510e-04	4.915827849189e-04	1.438511571203e-04
81                  	1.414359834356e-03	7.507685094920e-04	4.798769301062e-04	1.390592853430e-04
82                  	1.407262044326e-03	7.325630760330e-04	4.698068766066e-04	1.326900284540e-04
83                  	1.387126724095e-03	7.076857633179e-04	4.556112338838e-04	1.275813569912e-04
84                  	1.405901898226e-03	6.889584740921e-04	4.462970625394e-04	1.221179753199e-04
85                  	1.402126874803e-03	6.932389486998e-04	4.534743592660e-04	1.181500202547e-04
86                  	1.314039179644e-03	7.032290317074e-04	4.631896130705e-04	1.138678567588e-04
87                  	1.256554905574e-03	7.047101888389e-04	4.676973661784e-04	1.103375775705e-04
88                  	1.226620736614e-03	7.020619778997e-04	4.694942077240e-04	1.075902239990e-04
89                  	1.205278806488e-03	6.961129239973e-04	4.688293903936e-04	1.024759298713e-04
90                  	1.195046213105e-03	6.893129299250e-04	4.664777889750e-04	9.824914594626e-05
91                  	1.183833693369e-03	6.821980749894e-04	4.633442650486e-04	9.288735489873e-05
92                  	1.177245904633e-03	6.750243220163e-04	4.597944165708e-04	8.843902953219e-05
93                  	1.165181892431e-03	6.673517410518e-04	4.559870793464e-04	8.632095699521e-05
94                  	1.152671250154e-03	6.599074116114e-04	4.520485111435e-04	8.445473753049e-05
95                  	1.141297256269e-03	6.532005077309e-04	4.480737062022e-04	8.308905295072e-05
96                  	1.128662064982e-03	6.456109397681e-04	4.440459446087e-04	8.196010399471e-05
97                  	1.117117296048e-03	6.388970973659e-04	4.400292307843e-04	7.887283012364e-05
98                  	1.102294615980e-03	6.314243432920e-04	4.359810725041e-04	7.727677903036e-05
99                  	1.090844179554e-03	6.252276303328e-04	4.319327574085e-04	7.589071534598e-05
100                 	1.080136902851e-03	6.173663329409e-04	4.278921159418e-04	7.470529990422e-05
101                 	1.069003353683e-03	6.106388448011e-04	4.238795790728e-04	7.384332241209e-05
102                 	1.055917139453e-03	6.042230346003e-04	4.199246851665e-04	7.148347140294e-05
103                 	1.046153407470e-03	5.971822243736e-04	4.159957312791e-04	7.025761436285e-05
104                 	1.035372787433e-03	5.908844546428e-04	4.120902548979e-04	6.931017128613e-05
105                 	1.025684576417e-03	5.847217584344e-04	4.082085064685e-04	6.907893045441e-05
106                 	1.013400271766e-03	5.774460181458e-04	4.043623442771e-04	6.719414106449e-05
107                 	1.003469992725e-03	5.702373203595e-04	4.005682154348e-04	6.538589812725e-05
108                 	9.920373237898e-04	5.642246027425e-04	3.968085843849e-04	6.474346860098e-05
109                 	9.805736384449e-04	5.581166766913e-04	3.930836119302e-04	6.395736516646e-05
110                 	9.729575534037e-04	5.518748434267e-04	3.893938373362e-04	6.296876960158e-05
111                 	9.645589373405e-04	5.456230378159e-04	3.857355998353e-04	6.205852571139e-05
112                 	9.527517352199e-04	5.398687463736e-04	3.821250353557e-04	6.038448083197e-05
113                 	9.424279270502e-04	5.339899116638e-04	3.785614246360e-04	5.902606766675e-05
114                 	9.376170423083e-04	5.275062956368e-04	3.750215545912e-04	5.883120117956e-05
115                 	9.287016522300e-04	5.216453127774e-04	3.715234477910e-04	5.823074047727e-05
116                 	9.207914068967e-04	5.159544526492e-04	3.680645847298e-04	5.742136155785e-05
117                 	9.119688044655e-04	5.105896049476e-04	3.646462548029e-04	5.661544019162e-05
118                 	9.031259437970e-04	5.046080505639e-04	3.612587092983e-04	5.590161057676e-05
119                 	8.967979141053e-04	4.992436313941e-04	3.579095360446e-04	5.492742676439e-05
120                 	8.864285857572e-04	4.938788639776e-04	3.545994250911e-04	5.385751920182e-05
121                 	8.787117830824e-04	4.887810062258e-04	3.513370624629e-04	5.238177367682e-05
122                 	8.739477101334e-04	4.832156322506e-04	3.480990003829e-04	5.219758866466e-05
123                 	8.672639801787e-04	4.779260821733e-04	3.448993205907e-04	5.171741174995e-05
124                 	8.606011701839e-04	4.730768664551e-04	3.417418890775e-04	5.096933897005e-05
125                 	8.525000013227e-04	4.675128717813e-04	3.386099707366e-04	5.048677602313e-05
126                 	8.463137731606e-04	4.625907335554e-04	3.355153067154e-04	4.955097448079e-05
127                 	8.420164618942e-04	4.578022030727e-04	3.324586804997e-04	4.824563304332e-05
128                 	8.345927809918e-04	4.532328067398e-04	3.294442500045e-04	4.683179144439e-05
129                 	8.277751699204e-04	4.476629102519e-04	3.264541876146e-04	4.659866636863e-05
130                 	8.227499084950e-04	4.429971360049e-04	3.234978222353e-04	4.684010283537e-05
131                 	8.173238305808e-04	4.390424229513e-04	3.205707321007e-04	4.630745956169e-05
132                 	8.097698286069e-04	4.342983378820e-04	3.176731467335e-04	4.588258016374e-05
133                 	8.052264358767e-04	4.294489006354e-04	3.148105406186e-04	4.479747761846e-05
134                 	7.982648151599e-04	4.248645630577e-04	3.119755449128e-04	4.442797447488e-05
135                 	7.934533532039e-04	4.205146034700e-04	3.091729919979e-04	4.378496459874e-05
136                 	7.887613871949e-04	4.164084794575e-04	3.064037172859e-04	4.320150650345e-05
137                 	7.825241613426e-04	4.113641168203e-04	3.036541588328e-04	4.330593450317e-05
138                 	7.777552489511e-04	4.071978638987e-04	3.009353768196e-04	4.362178149437e-05
139                 	7.742876217624e-04	4.035477497704e-04	2.982422039958e-04	4.287477476817e-05
140                 	7.675792795377e-04	3.996452553920e-04	2.955797440631e-04	4.256878263925e-05
141                 	7.637101054148e-04	3.951648689026e-04	2.929411281402e-04	4.183625994038e-05
142                 	7.556797947023e-04	3.912749201345e-04	2.903348435803e-04	4.123918904790e-05
143                 	7.513875643780e-04	3.866388877550e-04	2.877501944642e-04	4.100841851860e-05
144                 	7.448556775973e-04	3.829295975305e-04	2.851916283241e-04	4.094950979879e-05
145                 	7.406129503869e-04	3.797318056117e-04	2.826623745983e-04	4.032100912185e-05
146                 	7.365224260834e-04	3.753368340816e-04	2.801547216278e-04	3.972895464767e-05
147                 	7.318027062743e-04	3.715199993928e-04	2.776700791614e-04	3.980947879565e-05
148                 	7.262249486032e-04	3.677706198559e-04	2.752143399515e-04	3.926304801754e-05
149                 	7.221115553499e-04	3.646685012835e-04	2.727800669788e-04	3.907441661232e-05
150                 	7.184348576463e-04	3.604952642242e-04	2.703682694088e-04	3.852879811811e-05
151                 	7.125504104895e-04	3.569615236116e-04	2.679791384416e-04	3.843552792319e-05
152                 	7.085035261742e-04	3.536009189989e-04	2.656190508390e-04	3.784773905336e-05
153                 	7.044410710510e-04	3.496276225400e-04	2.632768076981e-04	3.750049660516e-05
154                 	6.995763297472e-04	3.461109890793e-04	2.609589949474e-04	3.772062338062e-05
155                 	6.938495008290e-04	3.431526708163e-04	2.586630672811e-04	3.708765545477e-05
156                 	6.890053541608e-04	3.397440172142e-04	2.563870018413e-04	3.705705418502e-05
157                 	6.861079700210e-04	3.365038977397e-04	2.541378503413e-04	3.623055142499e-05
158                 	6.810017905449e-04	3.328458961242e-04	2.519106902219e-04	3.559097022487e-05
159                 	6.785405932460e-04	3.295337084506e-04	2.497013494704e-04	3.594127923829e-05
160                 	6.714385015598e-04	3.263238567831e-04	2.475170266960e-04	3.557246985112e-05
161                 	6.682404893551e-04	3.236447490185e-04	2.453502814721e-04	3.543297592875e-05
162                 	6.637593314462e-04	3.200357612916e-04	2.432034367869e-04	3.489856100410e-05
163                 	6.596952581914e-04	3.170500194329e-04	2.410773076639e-04	3.477884499317e-05
164                 	6.569097110002e-04	3.141894664149e-04	2.389766449171e-04	3.424566219084e-05
165                 	6.515154466053e-04	3.108013537165e-04	2.368909516015e-04	3.388719871110e-05
166                 	6.495014753444e-04	3.077926595368e-04	2.348234255128e-04	3.403071919982e-05
167                 	6.444319661388e-04	3.049342172449e-04	2.327807929636e-04	3.334932171850e-05
168                 	6.396889738861e-04	3.019703625504e-04	2.307582637954e-04	3.291117837747e-05
169                 	6.370752140165e-04	2.990730396931e-04	2.287496152793e-04	3.302646948473e-05
170                 	6.328919596812e-04	2.963419242181e-04	2.267612270295e-04	3.279386948791e-05
171                 	6.285600269312e-04	2.934805607802e-04	2.247942525472e-04	3.237839805653e-05
172                 	6.249634064607e-04	2.907885497966e-04	2.228416697583e-04	3.220635003359e-05
173                 	6.215808207368e-04	2.880147765323e-04	2.209100693856e-04	3.182634038183e-05
174                 	6.172605246936e-04	2.853103535737e-04	2.189963171148e-04	3.147511923964e-05
175                 	6.135440409726e-04	2.826577309547e-04	2.171014898330e-04	3.114319547874e-05
176                 	6.097289792892e-04	2.799623829321e-04	2.152240801349e-04	3.095076531860e-05
177                 	6.052003799291e-04	2.770289443093e-04	2.133646685793e-04	3.063732362119e-05
178                 	6.017662479571e-04	2.744831732984e-04	2.115200701081e-04	3.095109283708e-05
179                 	5.975482073739e-04	2.719626197915e-04	2.096960862343e-04	3.045696830628e-05
180                 	5.952491752413e-04	2.694999309743e-04	2.078851067228e-04	3.022082646729e-05
181                 	5.927349681509e-04	2.670820032684e-04	2.060923710957e-04	2.983503780075e-05
182                 	5.886529762719e-04	2.645753220149e-04	2.043176950368e-04	2.946442888445e-05
183                 	5.847508797711e-04	2.621288933038e-04	2.025588624018e-04	2.926659303965e-05
184                 	5.817949879252e-04	2.597381815723e-04	2.008173995253e-04	2.894975237336e-05
185                 	5.789914242191e-04	2.570752125812e-04	1.990921354562e-04	2.857393073387e-05
186                 	5.744329570947e-04	2.547248184511e-04	1.973805007401e-04	2.888695385368e-05
187                 	5.707952643575e-04	2.523955771437e-04	1.956873019601e-04	2.857780637691e-05
188                 	5.680480590954e-04	2.501702225152e-04	1.940064113638e-04	2.836422458668e-05
189                 	5.661191599340e-04	2.478804678331e-04	1.923444380398e-04	2.792797501620e-05
190                 	5.619047524961e-04	2.456765312536e-04	1.906944587727e-04	2.775616284142e-05
191                 	5.587338719508e-04	2.434575362363e-04	1.890612098241e-04	2.749309360998e-05
192                 	5.546879808754e-04	2.412664221674e-04	1.874441351770e-04	2.710116804742e-05
193                 	5.518741301957e-04	2.391424618723e-04	1.858426520459e-04	2.686885524735e-05
194                 	5.493131989627e-04	2.367320768637e-04	1.842543665405e-04	2.661871917602e-05
195                 	5.464321654805e-04	2.345449704322e-04	1.826792297106e-04	2.662276564005e-05
196                 	5.438503110832e-04	2.324637385117e-04	1.811198036117e-04	2.636620191534e-05
197                 	5.405487294309e-04	2.304308379430e-04	1.795751537014e-04	2.603239147246e-05
198                 	5.362813819708e-04	2.284184847452e-04	1.780446444979e-04	2.579849715794e-05
199                 	5.357331735560e-04	2.261499019692e-04	1.765281045896e-04	2.554322574104e-05
200                 	5.329200127598e-04	2.241982358430e-04	1.750236503324e-04	2.574142592277e-05
201                 	5.269626089451e-04	2.222787307060e-04	1.735339515077e-04	2.539220421394e-05
202                 	5.254949594109e-04	2.203383292569e-04	1.720580528506e-04	2.492443537853e-05
203                 	5.222282532607e-04	2.184014361982e-04	1.705953834202e-04	2.471575274206e-05
204                 	5.190403852920e-04	2.164870334804e-04	1.691462158034e-04	2.458811179754e-05
205                 	5.163677695887e-04	2.144162524642e-04	1.677105672929e-04	2.424985372885e-05
206                 	5.129910034308e-04	2.125717655575e-04	1.662860401008e-04	2.437401353285e-05
207                 	5.109967154937e-04	2.107206481778e-04	1.648755071737e-04	2.407602713530e-05
208                 	5.084918897917e-04	2.088705584738e-04	1.634781828750e-04	2.376189212416e-05
209                 	5.051885810286e-04	2.071462758040e-04	1.620937768984e-04	2.366247031679e-05
210                 	5.020203138659e-04	2.051273492036e-04	1.607208305466e-04	2.338065058399e-05
211                 	4.993539848892e-04	2.033324563316e-04	1.593598860845e-04	2.322560959681e-05
212                 	4.963750174273e-04	2.013956610399e-04	1.580126156230e-04	2.304364549891e-05
213                 	4.927590026479e-04	1.998426185573e-04	1.566764276533e-04	2.292807828265e-05
214                 	4.907989495727e-04	1.981805868636e-04	1.553521884994e-04	2.265036343298e-05
215                 	4.874899688925e-04	1.964903058966e-04	1.540392590501e-04	2.252768421361e-05
216                 	4.872115182657e-04	1.948874511174e-04	1.527400098637e-04	2.226935413276e-05
217                 	4.841645982402e-04	1.930362225084e-04	1.514509840930e-04	2.199082992798e-05
218                 	4.806869149147e-04	1.913855843493e-04	1.501734760932e-04	2.192756153248e-05
219                 	4.795533234279e-04	1.895717846451e-04	1.489079986481e-04	2.169752620878e-05
220                 	4.756307281888e-04	1.880103020619e-04	1.476527305685e-04	2.176623741491e-05
221                 	4.725598470871e-04	1.864842007106e-04	1.464092066596e-04	2.150708989976e-05
222                 	4.713381101119e-04	1.849561269422e-04	1.451763994922e-04	2.115302542709e-05
223                 	4.701576887858e-04	1.834258880289e-04	1.439551545992e-04	2.088625800517e-05
224                 	4.663843387518e-04	1.816857767934e-04	1.427456766741e-04	2.054550655286e-05
225                 	4.644290697281e-04	1.801989409056e-04	1.415451800999e-04	2.076485253625e-05
226                 	4.613967885482e-04	1.787146070352e-04	1.403555663095e-04	2.064738552452e-05
227                 	4.593368307117e-04	1.772637735043e-04	1.391766203836e-04	2.039451658762e-05
228                 	4.552173839291e-04	1.758479846038e-04	1.380087065477e-04	2.019477766102e-05
229                 	4.541006918095e-04	1.742563205632e-04	1.368508123770e-04	1.987272172504e-05
230                 	4.503920994965e-04	1.728058052567e-04	1.357028850839e-04	1.980124612220e-05
231                 	4.493274785832e-04	1.712056337196e-04	1.345659128876e-04	1.959016379605e-05
232                 	4.455795057471e-04	1.698465469012e-04	1.334379063802e-04	1.965178989624e-05
233                 	4.459455564048e-04	1.685018061903e-04	1.323203253324e-04	1.941560892075e-05
234                 	4.440927438043e-04	1.671800704085e-04	1.312120913901e-04	1.919485338517e-05
235                 	4.408034819184e-04	1.658540536489e-04	1.301151835844e-04	1.888517296900e-05
236                 	4.380382275301e-04	1.643838791015e-04	1.290273158274e-04	1.864439104010e-05
237                 	4.364351106533e-04	1.630173582581e-04	1.279479164952e-04	1.871208557799e-05
238                 	4.339503265803e-04	1.615194000757e-04	1.268790266304e-04	1.856432475987e-05
239                 	4.325950825458e-04	1.603321428958e-04	1.258185702290e-04	1.859191007711e-05
240                 	4.292726480468e-04	1.590889614854e-04	1.247682493355e-04	1.821550245474e-05
241                 	4.279017734140e-04	1.578505116943e-04	1.237268450843e-04	1.799067185075e-05
242                 	4.255533902957e-04	1.566279902388e-04	1.226949104347e-04	1.792796959672e-05
243                 	4.228063100966e-04	1.552497450195e-04	1.216716156241e-04	1.771330078603e-05
244                 	4.205729440964e-04	1.540252661282e-04	1.206573806053e-04	1.764870909072e-05
245                 	4.189458144492e-04	1.526657484032e-04	1.196524608109e-04	1.741259623916e-05
246                 	4.173086504421e-04	1.515196084066e-04	1.186554273840e-04	1.739446382795e-05
247                 	4.141329057936e-04	1.504071046242e-04	1.176689198631e-04	1.727305181721e-05
248                 	4.119753644940e-04	1.491152402170e-04	1.166886179821e-04	1.707326995072e-05
249                 	4.089075970331e-04	1.480104820533e-04	1.157186337205e-04	1.699210117803e-05
250                 	4.076938305476e-04	1.467417905155e-04	1.147554469770e-04	1.680143525740e-05
251                 	4.067425330351e-04	1.456612358682e-04	1.138023171766e-04	1.667963684981e-05
252                 	4.049630859975e-04	1.443968878123e-04	1.128563391871e-04	1.647662625046e-05
253                 	4.038147433997e-04	1.433576197320e-04	1.119186738078e-04	1.640458176307e-05
254                 	3.996795036051e-04	1.423342700268e-04	1.109911357960e-04	1.626045006821e-05
255                 	3.992629174123e-04	1.411154004983e-04	1.100690532227e-04	1.610304174186e-05
256                 	3.961910142453e-04	1.401054184629e-04	1.091569912101e-04	1.604383123326e-05
257                 	3.941363153760e-04	1.389031231398e-04	1.082507920507e-04	1.588539438984e-05
258                 	3.923212154561e-04	1.379165595104e-04	1.073544156817e-04	1.575584524017e-05
259                 	3.911057420162e-04	1.367433284578e-04	1.064643401194e-04	1.555443614433e-05
260                 	3.890094089086e-04	1.357673146557e-04	1.055820958427e-04	1.548189309459e-05
261                 	3.861239556640e-04	1.348007229903e-04	1.047095179603e-04	1.528457476015e-05
262                 	3.839836221414e-04	1.336781451853e-04	1.038422834797e-04	1.510506914215e-05
263                 	3.828954151788e-04	1.326839759485e-04	1.029823799723e-04	1.513174791333e-05
264                 	3.812341790562e-04	1.317624239723e-04	1.021325338434e-04	1.490735857918e-05
265                 	3.792761315776e-04	1.306725772984e-04	1.012875489589e-04	1.475169388955e-05
266                 	3.773826289840e-04	1.296965033264e-04	1.004498752125e-04	1.476344932538e-05
267                 	3.762673727269e-04	1.288032037004e-04	9.962187490019e-05	1.453655553854e-05
268                 	3.758205830716e-04	1.277531169869e-04	9.879867091137e-05	1.437107186195e-05
269                 	3.722977041598e-04	1.268197099781e-04	9.798243175575e-05	1.439887724254e-05
270                 	3.708596085718e-04	1.259506649804e-04	9.717567647200e-05	1.417221290118e-05
271                 	3.691202260684e-04	1.249355725272e-04	9.637371092867e-05	1.398751136901e-05
272                 	3.669545699802e-04	1.240351952819e-04	9.557844569282e-05	1.401563709397e-05
273                 	3.646229099347e-04	1.231898441633e-04	9.479234066586e-05	1.380859980810e-05
274                 	3.630179809092e-04	1.222043403264e-04	9.401096684741e-05	1.362896492321e-05
275                 	3.621541050963e-04	1.213317062235e-04	9.323613311862e-05	1.366035261142e-05
276                 	3.596287031529e-04	1.205094384927e-04	9.247019223723e-05	1.346242834573e-05
277                 	3.567844744550e-04	1.195529296370e-04	9.170888162811e-05	1.328186228705e-05
278                 	3.566901797023e-04	1.187101290950e-04	9.095393597826e-05	1.331143388191e-05
279                 	3.541122952324e-04	1.179112563523e-04	9.020760317873e-05	1.312354411790e-05
280                 	3.543840043250e-04	1.169845825285e-04	8.946582080817e-05	1.294065067778e-05
281                 	3.511459115513e-04	1.161717018247e-04	8.873023867760e-05	1.296947029038e-05
282                 	3.489234764828e-04	1.153935058181e-04	8.800296844844e-05	1.279431756371e-05
283                 	3.477397021560e-04	1.144958374256e-04	8.728017647309e-05	1.260594403642e-05
284                 	3.468152371042e-04	1.137109515505e-04	8.656343340037e-05	1.262802902285e-05
285                 	3.446321835038e-04	1.129059196899e-04	8.585359482753e-05	1.247827377769e-05
286                 	3.439132312576e-04	1.121685480210e-04	8.515118193672e-05	1.228659276545e-05
287                 	3.418811684645e-04	1.112134998944e-04	8.445397004741e-05	1.218959367922e-05
288                 	3.399994791210e-04	1.105239465799e-04	8.375993754286e-05	1.250388598325e-05
289                 	3.388375667369e-04	1.097882649189e-04	8.307397633428e-05	1.217422613056e-05
290                 	3.363698655837e-04	1.089939628670e-04	8.239507415924e-05	1.182997019451e-05
291                 	3.347910562843e-04	1.084217606707e-04	8.172067143801e-05	1.206945320184e-05
292                 	3.338996845191e-04	1.074761758171e-04	8.105322534375e-05	1.161091877264e-05
293                 	3.328209110030e-04	1.067570187269e-04	8.038838370108e-05	1.185003714486e-05
294                 	3.303147297992e-04	1.060334513049e-04	7.973128061568e-05	1.166149272813e-05
295                 	3.286020100205e-04	1.053580394933e-04	7.908134751582e-05	1.137631706362e-05
296                 	3.271607043649e-04	1.044896577164e-04	7.843610845825e-05	1.125411558294e-05
297                 	3.263239960777e-04	1.038416041749e-04	7.779458907067e-05	1.151271338852e-05
298                 	3.239903115006e-04	1.031403059883e-04	7.715938466845e-05	1.142272356884e-05
299                 	3.227722862991e-04	1.026668738104e-04	7.653071408808e-05	1.133349766443e-05
300                 	3.211841783978e-04	1.018021187597e-04	7.590618365847e-05	1.101628316124e-05
301                 	3.197526445190e-04	1.011323818787e-04	7.528550050637e-05	1.110148695029e-05
302                 	3.179143277091e-04	1.004602567096e-04	7.467332916220e-05	1.075402228529e-05
303                 	3.159486542751e-04	9.964309458116e-05	7.406604867672e-05	1.059659113809e-05
304                 	3.157422908826e-04	9.921665817296e-05	7.346330572536e-05	1.071107924907e-05
305                 	3.152149693282e-04	9.837159262030e-05	7.286461683201e-05	1.068740234070e-05
306                 	3.134995257357e-04	9.781249356713e-05	7.227084111440e-05	1.079207410356e-05
307                 	3.113066124767e-04	9.718759670689e-05	7.168301389503e-05	1.057147913766e-05