# Wall shear stress 
# Time              	patch               	min                 	max                 
0.000000000000e+00	wall	(0.000000000000e+00 0.000000000000e+00 0.000000000000e+00)	(0.000000000000e+00 0.000000000000e+00 0.000000000000e+00)
1.000000000000e+02	wall	(-1.696368406827e-13 -1.895179296521e-04 -6.687852228914e-01)	(4.273719817892e-12 3.121289940358e-01 4.879906818811e-02)
2.000000000000e+02	wall	(-1.400127243073e-13 -4.579597486208e-04 -1.153547147395e+00)	(1.378236202361e-11 3.828176810287e-01 9.201340120182e-02)
3.000000000000e+02	wall	(-6.613951502806e-14 -6.049681126354e-04 -1.292035808923e+00)	(1.971329465529e-11 4.220587626589e-01 1.059583096535e-01)
4.000000000000e+02	wall	(-2.260055732073e-14 -6.616050679754e-04 -1.326638142310e+00)	(2.324228184631e-11 4.364532663305e-01 1.097420518844e-01)
4.100000000000e+02	wall	(-1.954290240413e-14 -6.654452423584e-04 -1.328162985090e+00)	(2.349546697657e-11 4.372821245141e-01 1.099186722777e-01)
