# Wall shear stress 
# Time              	patch               	min                 	max                 
0.000000000000e+00	wall	(0.000000000000e+00 0.000000000000e+00 0.000000000000e+00)	(0.000000000000e+00 0.000000000000e+00 0.000000000000e+00)
1.000000000000e+02	wall	(-1.013877697106e-10 -6.258681717851e+00 -2.104483880677e+00)	(1.371491467737e-12 1.589240458470e+01 7.533631266299e+02)
2.000000000000e+02	wall	(-5.519269916870e-11 -1.433462112241e+00 -7.808794362270e-01)	(3.304926393947e-10 3.691126685336e+00 1.125772531144e+02)
3.000000000000e+02	wall	(-3.447795745375e-11 -3.384036223007e-01 -2.903815483745e-01)	(5.200703084080e-10 9.767555101098e-01 4.044567604641e+01)
4.000000000000e+02	wall	(-1.384401578156e-11 -9.343737322057e-02 -3.386593825233e-01)	(3.843211664971e-10 2.957371977382e-01 1.375276777997e+01)
5.000000000000e+02	wall	(-1.938909951733e-13 -1.036042514315e-01 -3.596409389645e-01)	(4.768913000822e-09 3.810646507263e-02 4.674895194645e+00)
6.000000000000e+02	wall	(2.539786838579e-13 -1.112134599236e-01 -3.503379662237e-01)	(1.798721085082e-09 1.404188435006e-02 1.579277227649e+00)
7.000000000000e+02	wall	(7.113587789095e-13 -1.128947609075e-01 -3.654301742049e-01)	(3.348557297827e-09 1.464965843620e-02 5.404972563721e-01)
8.000000000000e+02	wall	(3.825491153079e-13 -1.034275512245e-01 -3.855823645160e-01)	(1.933900882705e-09 1.653086326862e-02 2.011375170532e-01)
9.000000000000e+02	wall	(4.607897710334e-13 -8.892475136056e-02 -4.054230155744e-01)	(3.150236170475e-09 1.907200633459e-02 1.305780007619e-01)
1.000000000000e+03	wall	(4.580432166156e-13 -7.955546994564e-02 -4.235145767350e-01)	(5.832074566179e-09 3.201253451602e-02 7.532546895716e-02)
1.100000000000e+03	wall	(4.887292079026e-13 -6.996186812734e-02 -4.390486019392e-01)	(3.378070557551e-11 5.589379400691e-02 6.679412666912e-02)
1.200000000000e+03	wall	(5.239117919920e-13 -6.041741258112e-02 -4.516691454076e-01)	(3.137664819338e-11 7.367564215681e-02 5.907367698142e-02)
1.300000000000e+03	wall	(5.572325533492e-13 -5.108814623938e-02 -4.615508982484e-01)	(2.993443023463e-11 8.713217567265e-02 5.202895273712e-02)
1.400000000000e+03	wall	(5.877909562998e-13 -4.206361186443e-02 -4.690499598151e-01)	(3.239512664747e-11 9.795936782438e-02 4.552310548482e-02)
1.500000000000e+03	wall	(6.153142821059e-13 -3.351901415784e-02 -4.745825210766e-01)	(3.451199376321e-11 1.073680259744e-01 3.939481520941e-02)
1.600000000000e+03	wall	(6.391738773565e-13 -2.606482609766e-02 -4.782658818744e-01)	(3.619264929690e-11 1.150761809929e-01 3.373422407242e-02)
1.700000000000e+03	wall	(6.594214600060e-13 -1.885362749673e-02 -4.809898088615e-01)	(3.752570873300e-11 1.218376730160e-01 3.226868241690e-02)
1.800000000000e+03	wall	(6.781582459793e-13 -1.259713308106e-02 -4.827085378488e-01)	(3.858806741423e-11 1.272087269179e-01 3.224687734399e-02)
1.900000000000e+03	wall	(6.953619456914e-13 -7.780004788868e-03 -4.837161873083e-01)	(3.942191075217e-11 1.320898080069e-01 3.265846937231e-02)
2.000000000000e+03	wall	(7.105367597258e-13 -5.681752895504e-03 -4.842675828278e-01)	(4.007154437135e-11 1.361357150936e-01 3.315481030096e-02)
2.100000000000e+03	wall	(7.218721010712e-13 -3.877694197855e-03 -4.845481455649e-01)	(4.957343646151e-11 1.388616284641e-01 3.349400000973e-02)
