# Wall shear stress 
# Time              	patch               	min                 	max                 
0.000000000000e+00	wall	(0.000000000000e+00 0.000000000000e+00 0.000000000000e+00)	(0.000000000000e+00 0.000000000000e+00 0.000000000000e+00)
1.000000000000e+02	wall	(-7.361618883368e-14 -3.178765627110e-01 -1.070390989169e-01)	(1.641802992636e-11 6.306692653497e-02 9.148885677985e-01)
2.000000000000e+02	wall	(-2.204469470885e-14 -9.076945098319e-02 -1.023530345184e+00)	(6.232006419376e-10 2.067341094539e-01 7.311895329530e-02)
3.000000000000e+02	wall	(-1.443307675440e-14 -1.580749386667e-02 -1.644043727587e+00)	(3.587293448589e-11 4.175348265587e-01 1.243999586164e-01)
4.000000000000e+02	wall	(3.214734962540e-14 -1.933581746850e-04 -1.831463563025e+00)	(4.117300778554e-11 5.119672606766e-01 1.407876101919e-01)
5.000000000000e+02	wall	(5.977105761373e-14 -2.381384707745e-04 -1.888472890280e+00)	(4.329070145593e-11 5.621099320709e-01 1.489384143989e-01)
6.000000000000e+02	wall	(5.524009060357e-14 -2.699745566237e-04 -1.906636246233e+00)	(4.447272089953e-11 5.875339540844e-01 1.521265881540e-01)
7.000000000000e+02	wall	(6.476759384467e-14 -6.505286495684e-04 -1.913899484371e+00)	(4.696244273806e-11 6.023484395192e-01 1.536952934954e-01)
8.000000000000e+02	wall	(7.615086225023e-14 -8.294363060670e-04 -1.916995892722e+00)	(4.876570758275e-11 6.111309786363e-01 1.545121583730e-01)
9.000000000000e+02	wall	(8.630136478849e-14 -9.804820618679e-04 -1.918836145100e+00)	(4.999734089597e-11 6.174338651553e-01 1.550714270425e-01)
9.660000000000e+02	wall	(9.055713230170e-14 -1.076243307284e-03 -1.919568678456e+00)	(5.045778585154e-11 6.206377236424e-01 1.553704066649e-01)
