# Residuals         
# Time              	Ux                  	Uy                  	Uz                  	p                   
0                   	N/A	N/A
1                   	9.928014448177e-01	9.999999999999e-01	1.000000000000e+00	9.999999999856e-01
2                   	7.822698689367e-01	9.879995733231e-01	9.869003218029e-01	6.292388154246e-03
3                   	7.076369458420e-01	8.455123172465e-02	7.334490609174e-02	1.875723123980e-02
4                   	3.790571263636e-02	6.931210980867e-02	1.609335879227e-02	3.711989040564e-01
5                   	1.141136749806e-02	2.188579134583e-02	6.469807903688e-02	4.370525852415e-02
6                   	7.242378835824e-03	1.881269211354e-01	1.812692772339e-01	2.942798650216e-02
7                   	7.457188425132e-03	2.991328882114e-01	1.738581818367e-01	8.306741387473e-02
8                   	7.255642198729e-03	7.705412502675e-02	5.102487875797e-02	2.739288428136e-01
9                   	5.970391155035e-03	3.391571238246e-02	3.568886681759e-02	2.316295354593e-01
10                  	4.213963916249e-03	1.262343420511e-01	9.772564174384e-02	7.825852607290e-02
11                  	2.971037419777e-03	4.501631823411e-01	1.892303507519e-01	2.971046537989e-02
12                  	2.338469960133e-03	1.033621860920e-01	8.032245127183e-02	5.769293722312e-02
13                  	1.812291539725e-03	4.020998005242e-02	4.178408409184e-02	2.333769702167e-01
14                  	1.701882984442e-03	4.682640300257e-02	4.193912317356e-02	6.944604171662e-02
15                  	1.779578166537e-03	1.092207177723e-01	5.335784422093e-02	6.039826534627e-02
16                  	1.902626430913e-03	1.879642681127e-01	4.012161305933e-02	7.810969606604e-02
17                  	1.921315319569e-03	8.815978042971e-02	2.704447571665e-02	1.643211977347e-01
18                  	1.824635707369e-03	6.442458089667e-02	2.293992991943e-02	1.845718392186e-01
19                  	1.608000010495e-03	9.902263495596e-02	2.603906610578e-02	1.018771005275e-01
20                  	1.399090796180e-03	6.852703929730e-02	2.785289016631e-02	8.747133714235e-02
21                  	1.271260540152e-03	4.359366036770e-02	2.898418524463e-02	8.081034557510e-02
22                  	1.142332487245e-03	3.326549055870e-02	2.560100040313e-02	9.874169163188e-02
23                  	1.081868334941e-03	2.490374339915e-02	2.228078880395e-02	1.308771040707e-01
24                  	1.050773970579e-03	2.501506610270e-02	1.953105536377e-02	1.725556017705e-01
25                  	1.028230767896e-03	2.451451678630e-02	1.757746415736e-02	1.827170347421e-01
26                  	1.000809756265e-03	2.039860253791e-02	1.522906324811e-02	1.969100564751e-01
27                  	9.762102036454e-04	1.569379367736e-02	1.326608110293e-02	1.852918354622e-01
28                  	9.520705485661e-04	1.386514964794e-02	1.202430072156e-02	1.542848196368e-01
29                  	9.241803001849e-04	1.339138398889e-02	1.196280760008e-02	1.227689100480e-01
30                  	8.930970389398e-04	1.357416114688e-02	1.329074358535e-02	9.174861351446e-02
31                  	8.588117545632e-04	1.396996601925e-02	1.414014460246e-02	7.494126791057e-02
32                  	8.268071291753e-04	1.277161438045e-02	1.443214636942e-02	6.494021609357e-02
33                  	8.012369305780e-04	1.206719605635e-02	1.387898912718e-02	6.152627907438e-02
34                  	7.841382589945e-04	1.206452326243e-02	1.258166275472e-02	7.181994521694e-02
35                  	7.683347914394e-04	1.060732145380e-02	1.143437062481e-02	7.850382363817e-02
36                  	7.554622432068e-04	9.914297993703e-03	1.023269892638e-02	8.640084295556e-02
37                  	7.427048650692e-04	8.761080973851e-03	9.187684045211e-03	8.809018940198e-02
38                  	7.284826057522e-04	7.528639029943e-03	8.554387084386e-03	8.506602024372e-02
39                  	7.147934295442e-04	6.972336425096e-03	8.714996239463e-03	7.666725522004e-02
40                  	7.006037942394e-04	6.947531189900e-03	9.192078161117e-03	6.493841889262e-02
41                  	6.858844713637e-04	7.209692406933e-03	9.340282279468e-03	5.571436964610e-02
42                  	6.721271686646e-04	6.871375093756e-03	9.235322973116e-03	4.810097237637e-02
43                  	6.596911320192e-04	6.471583717221e-03	8.957177359439e-03	4.339735796526e-02
44                  	6.482206826665e-04	6.016456908250e-03	8.562084970775e-03	4.286620346411e-02
45                  	6.384916669352e-04	5.278856053824e-03	8.127574744677e-03	4.333184701014e-02
46                  	6.285347554446e-04	4.611488759684e-03	7.725297814205e-03	4.432050110406e-02
47                  	6.180798242112e-04	3.925603691307e-03	7.407944882874e-03	4.441297567373e-02
48                  	6.076734758797e-04	3.529858931925e-03	7.337093384149e-03	4.272817241917e-02
49                  	5.974287648453e-04	3.362816576188e-03	7.426262775569e-03	4.100212689053e-02
50                  	5.890865473750e-04	3.698726378419e-03	7.527965256399e-03	3.689694930450e-02
51                  	5.807043321944e-04	3.805605760810e-03	7.535751482845e-03	3.285688566647e-02
52                  	5.721432138623e-04	3.782509400423e-03	7.433820100535e-03	2.946350802905e-02
53                  	5.633497671113e-04	3.630452130774e-03	7.252374518244e-03	2.703770607650e-02
54                  	5.531225649570e-04	3.354072132011e-03	7.014914616707e-03	2.667039798476e-02
55                  	5.450649638163e-04	3.042581851110e-03	6.778823398572e-03	2.678500594359e-02
56                  	5.376741972562e-04	2.746028276336e-03	6.574727844808e-03	2.656900030629e-02
57                  	5.296111144867e-04	2.519241361913e-03	6.462127853012e-03	2.555229143800e-02
58                  	5.213620446224e-04	2.480766935579e-03	6.503414670042e-03	2.385660123908e-02
59                  	5.131832181168e-04	2.508887762395e-03	6.605076934019e-03	2.143582187242e-02
60                  	5.051452996861e-04	2.464748336988e-03	6.651822405109e-03	1.927867067761e-02
61                  	4.972785094379e-04	2.406660676811e-03	6.633907258748e-03	1.711863594758e-02
62                  	4.899943718047e-04	2.274425633740e-03	6.562080662663e-03	1.567701050344e-02
63                  	4.833234693201e-04	2.110842677234e-03	6.456211673513e-03	1.533708595469e-02
64                  	4.761745955370e-04	1.955979142629e-03	6.347652579158e-03	1.512368712761e-02
65                  	4.658928020705e-04	1.820154967948e-03	6.253791807635e-03	1.486234161852e-02
66                  	4.561401904321e-04	1.729365900016e-03	6.183063846730e-03	1.466147488932e-02
67                  	4.468580792453e-04	1.709083106570e-03	6.171468889651e-03	1.390546717658e-02
68                  	4.375024127549e-04	1.715627998414e-03	6.200419688057e-03	1.280712939208e-02
69                  	4.310580730868e-04	1.741007043297e-03	6.237780437886e-03	1.160177915666e-02
70                  	4.253316798816e-04	1.756886591866e-03	6.252253554527e-03	1.033319048090e-02
71                  	4.199034490065e-04	1.743293967624e-03	6.250145685063e-03	9.272533860205e-03
72                  	4.137208087447e-04	1.690985634799e-03	6.228465471551e-03	8.729308233450e-03
73                  	4.077591084922e-04	1.615723587922e-03	6.200641580878e-03	8.654061214550e-03
74                  	4.034437721307e-04	1.569560567134e-03	6.182024477703e-03	8.442322415019e-03
75                  	3.990743529239e-04	1.510879602068e-03	6.178317918291e-03	8.374938923498e-03
76                  	3.949642142693e-04	1.498857709765e-03	6.195274682753e-03	7.971374487144e-03
77                  	3.914577292768e-04	1.477229361628e-03	6.221861481328e-03	7.459416144842e-03
78                  	3.874777443553e-04	1.471769324448e-03	6.248362019776e-03	6.838447356846e-03
79                  	3.838903682740e-04	1.458280056466e-03	6.266799312964e-03	6.169163522523e-03
80                  	3.796106485017e-04	1.431468267567e-03	6.278444513381e-03	5.606535706039e-03
81                  	3.749538966054e-04	1.400539514609e-03	6.281465056743e-03	5.270932938165e-03
82                  	3.705170236758e-04	1.368665289994e-03	6.238727692066e-03	5.050296645831e-03
83                  	3.657123485301e-04	1.334928521419e-03	6.130732933325e-03	5.003386180891e-03
84                  	3.598247106401e-04	1.316564920395e-03	6.022726208766e-03	4.865359266662e-03
85                  	3.541155479798e-04	1.307225752720e-03	5.917701803965e-03	4.756359149927e-03
86                  	3.488892809086e-04	1.312180203169e-03	5.816127150783e-03	4.484329538818e-03
87                  	3.436615023551e-04	1.293948182426e-03	5.714864390895e-03	4.210755184547e-03
88                  	3.383395357689e-04	1.287015402951e-03	5.610185644206e-03	3.888899830359e-03
89                  	3.325633202521e-04	1.281293625774e-03	5.511477511650e-03	3.523779007033e-03
90                  	3.276080093839e-04	1.272404712959e-03	5.407843183347e-03	3.203777153557e-03
91                  	3.223309086120e-04	1.255132430782e-03	5.306772233618e-03	3.077840676480e-03
92                  	3.180966405397e-04	1.241914081030e-03	5.213287708806e-03	3.048144659779e-03
93                  	3.153139291097e-04	1.233512266231e-03	5.122502655876e-03	2.944680006786e-03
94                  	3.114718315699e-04	1.209471976525e-03	5.030950582931e-03	2.936441328277e-03
95                  	3.081304274452e-04	1.198555531500e-03	4.939976847351e-03	2.810757805852e-03
96                  	3.050325043313e-04	1.197541080237e-03	4.849211536332e-03	2.589767553720e-03
97                  	3.017216385339e-04	1.184705405342e-03	4.759597125061e-03	2.438372849689e-03
98                  	2.981212551422e-04	1.177743224435e-03	4.670085086060e-03	2.254761427175e-03
99                  	2.965294194468e-04	1.171810114237e-03	4.580237519065e-03	2.120413682767e-03
100                 	2.940656758813e-04	1.165988685662e-03	4.496345285910e-03	2.047590401830e-03
101                 	2.895321069960e-04	1.153531962126e-03	4.414991822283e-03	2.026653057741e-03
102                 	2.848791074309e-04	1.144453161498e-03	4.332620289670e-03	1.978640651634e-03
103                 	2.816840949198e-04	1.136615712832e-03	4.249990986457e-03	1.975153095068e-03
104                 	2.808124456961e-04	1.131708480145e-03	4.172151450823e-03	1.930939227585e-03
105                 	2.760990313901e-04	1.126100474443e-03	4.094593371843e-03	1.850815908912e-03
106                 	2.742611178470e-04	1.117947904996e-03	4.018895053264e-03	1.783861918532e-03
107                 	2.696968663848e-04	1.113027080523e-03	3.944249219124e-03	1.659501538049e-03
108                 	2.672062662773e-04	1.105684917371e-03	3.870067799026e-03	1.576110366825e-03
109                 	2.645460677229e-04	1.100680238209e-03	3.798317874041e-03	1.538513675937e-03
110                 	2.604277779997e-04	1.093582200756e-03	3.727074205291e-03	1.525737959067e-03
111                 	2.586080610375e-04	1.086236456946e-03	3.657863398887e-03	1.501364131099e-03
112                 	2.562091231845e-04	1.077878439882e-03	3.587302774424e-03	1.491910356773e-03
113                 	2.539048385009e-04	1.070806124097e-03	3.519043279050e-03	1.486230608070e-03
114                 	2.515920344226e-04	1.064512244961e-03	3.452359499711e-03	1.465006237628e-03
115                 	2.490762907025e-04	1.058031815636e-03	3.387587936192e-03	1.417398171412e-03
116                 	2.480571875143e-04	1.049073967040e-03	3.320621913245e-03	1.384301357469e-03
117                 	2.464115846955e-04	1.042517366912e-03	3.257468183255e-03	1.352203919474e-03
118                 	2.418319618907e-04	1.036243354212e-03	3.194834233767e-03	1.332346066478e-03
119                 	2.413061215727e-04	1.030546991395e-03	3.134432543261e-03	1.302510527751e-03
120                 	2.378481827816e-04	1.023558829745e-03	3.076920164163e-03	1.288109324093e-03
121                 	2.351008366043e-04	1.015904459079e-03	3.018889164765e-03	1.279357445309e-03
122                 	2.344290677436e-04	1.007937061532e-03	2.960736158663e-03	1.313662158047e-03
123                 	2.325380220252e-04	1.004914640137e-03	2.905143584313e-03	1.322355206288e-03
124                 	2.307806329926e-04	1.003122327340e-03	2.851986915440e-03	1.313011043455e-03
125                 	2.278809292227e-04	9.997306562726e-04	2.800119797179e-03	1.278890532922e-03
126                 	2.237098515020e-04	9.936250869206e-04	2.747910677021e-03	1.277758830664e-03
127                 	2.217804065276e-04	9.890868478935e-04	2.699431716333e-03	1.276403354986e-03
128                 	2.185972944076e-04	9.820741502801e-04	2.651361892728e-03	1.259380072626e-03
129                 	2.150043141711e-04	9.751942293719e-04	2.604692603784e-03	1.275355668567e-03
130                 	2.131999440868e-04	9.694074633754e-04	2.560534411335e-03	1.266376343883e-03
131                 	2.114946527877e-04	9.614996496296e-04	2.515681189172e-03	1.274315606667e-03
132                 	2.109655495182e-04	9.569808464666e-04	2.472491573202e-03	1.266927799862e-03
133                 	2.118014736487e-04	9.526533394697e-04	2.430830577766e-03	1.304620459533e-03
134                 	2.073389927341e-04	9.505024126084e-04	2.388723399792e-03	1.277443243704e-03
135                 	2.019790410962e-04	9.453108752015e-04	2.349585248384e-03	1.262203428219e-03
136                 	2.022489952361e-04	9.383462218302e-04	2.309732296860e-03	1.274943854777e-03
137                 	1.980539918583e-04	9.311144526776e-04	2.270489395338e-03	1.287401644626e-03
138                 	1.944192611530e-04	9.281188139991e-04	2.238008047129e-03	1.276118827403e-03
139                 	1.904780779566e-04	9.211025113651e-04	2.204774400893e-03	1.260157289510e-03
140                 	1.870176626494e-04	9.167724713261e-04	2.171444600662e-03	1.230900387890e-03
141                 	1.855249219776e-04	9.102832336239e-04	2.137498200248e-03	1.204942261505e-03
142                 	1.840628270970e-04	9.041063435321e-04	2.102893169855e-03	1.176083545777e-03
143                 	1.821294398422e-04	8.990514743033e-04	2.068291373652e-03	1.137643975758e-03
144                 	1.825215560263e-04	8.919917226959e-04	2.033782744070e-03	1.156074054378e-03
145                 	1.805501347277e-04	8.865802745093e-04	1.999874012498e-03	1.107156083857e-03
146                 	1.798472576709e-04	8.788350063045e-04	1.966360004254e-03	1.078933742386e-03
147                 	1.778015653609e-04	8.721512301303e-04	1.931261796169e-03	1.079172244720e-03
148                 	1.771933115269e-04	8.657842420984e-04	1.898169213663e-03	1.070502681178e-03
149                 	1.757189393307e-04	8.588654217239e-04	1.863810020303e-03	1.077554642020e-03
150                 	1.753982764330e-04	8.523505092928e-04	1.830071794263e-03	1.089938496989e-03
151                 	1.754808830276e-04	8.470155599756e-04	1.796425597696e-03	1.121025882720e-03
152                 	1.753455310889e-04	8.428418122769e-04	1.762636284993e-03	1.139004262741e-03
153                 	1.738713464299e-04	8.372084119405e-04	1.729597461917e-03	1.161411575603e-03
154                 	1.703330283968e-04	8.326338765797e-04	1.697553840625e-03	1.189733680512e-03
155                 	1.691104771918e-04	8.283635011760e-04	1.666795732864e-03	1.205699235394e-03
156                 	1.693641797702e-04	8.219335487695e-04	1.634915482102e-03	1.233698732919e-03
157                 	1.675406640600e-04	8.160415862293e-04	1.603383815965e-03	1.241610304949e-03
158                 	1.664482481675e-04	8.084435725724e-04	1.570885946108e-03	1.250284159731e-03
159                 	1.614385598581e-04	8.006346985107e-04	1.538766575111e-03	1.234175832214e-03
160                 	1.601363073808e-04	7.936485426839e-04	1.508220485804e-03	1.218815902192e-03
161                 	1.591080921881e-04	7.872437210242e-04	1.478554793511e-03	1.233969425798e-03
162                 	1.559874089161e-04	7.794067983013e-04	1.448977166610e-03	1.270362089736e-03
163                 	1.512723137467e-04	7.723224626390e-04	1.419523580450e-03	1.247899626465e-03
164                 	1.492017542758e-04	7.621379642841e-04	1.389989034596e-03	1.264565226570e-03
165                 	1.448512811501e-04	7.562001846794e-04	1.364696219998e-03	1.232663348366e-03
166                 	1.449735894425e-04	7.477054919569e-04	1.340224292154e-03	1.251621366672e-03
167                 	1.422684359240e-04	7.422013128904e-04	1.315951445172e-03	1.236493351312e-03
168                 	1.390740070491e-04	7.337656995372e-04	1.291278273010e-03	1.186808034810e-03
169                 	1.374976770903e-04	7.238306247454e-04	1.264950436682e-03	1.180467388646e-03
170                 	1.354674503108e-04	7.176859873692e-04	1.240987611364e-03	1.162464675061e-03
171                 	1.333553696837e-04	7.089883260889e-04	1.214329053310e-03	1.174620375244e-03
172                 	1.317732837684e-04	7.012353098379e-04	1.187871561348e-03	1.170564411117e-03
173                 	1.296334313670e-04	6.938573044232e-04	1.163305607844e-03	1.160867646745e-03
174                 	1.289596031041e-04	6.907320161809e-04	1.146273905476e-03	1.133298397698e-03
175                 	1.287441235805e-04	6.862501825745e-04	1.126459854856e-03	1.112692507602e-03
176                 	1.281982347317e-04	6.782343122104e-04	1.099847645873e-03	1.108085952359e-03
177                 	1.280048659700e-04	6.688172518255e-04	1.071701510085e-03	1.124133276072e-03
178                 	1.274584209096e-04	6.613112435329e-04	1.047536628346e-03	1.128275506846e-03
179                 	1.265094451084e-04	6.490707894856e-04	1.015973588906e-03	1.137550201846e-03
180                 	1.234895353096e-04	6.352363103401e-04	9.799260423729e-04	1.158017470448e-03
181                 	1.210473891012e-04	6.262748036193e-04	9.519768420396e-04	1.149999183214e-03
182                 	1.207631999085e-04	6.288704825994e-04	9.460456929958e-04	1.180615487345e-03
183                 	1.253093791825e-04	6.412119010444e-04	9.526276825720e-04	1.193437875413e-03
184                 	1.281929177696e-04	6.564515186501e-04	9.621322470125e-04	1.188102738443e-03
185                 	1.326601839860e-04	6.675985794553e-04	9.687091513236e-04	1.198083460530e-03
186                 	1.331273936281e-04	6.746093048049e-04	9.719248591606e-04	1.214471844474e-03
187                 	1.354017953087e-04	6.810728361574e-04	9.726875400463e-04	1.172175082910e-03
188                 	1.366453653281e-04	6.853561662697e-04	9.715355002178e-04	1.148910942833e-03
189                 	1.394457124809e-04	6.894977115079e-04	9.689393726651e-04	1.111433312526e-03
190                 	1.358213067828e-04	6.913460752803e-04	9.645768974199e-04	1.103878117170e-03
191                 	1.367291343119e-04	6.937520105185e-04	9.614085841112e-04	1.085933926106e-03
192                 	1.367685252936e-04	6.963389995766e-04	9.572968937540e-04	1.090116841871e-03
193                 	1.385763476457e-04	6.985324454574e-04	9.539404506253e-04	1.119531654407e-03
194                 	1.388310653471e-04	7.027317301970e-04	9.516158555985e-04	1.104822157844e-03
195                 	1.397269962462e-04	7.077133453493e-04	9.533988311710e-04	1.076143311022e-03
196                 	1.434112029550e-04	7.161709304855e-04	9.585475118886e-04	1.048586502363e-03
197                 	1.464928181028e-04	7.254071136950e-04	9.640742793244e-04	1.017857415118e-03
198                 	1.534676730515e-04	7.333610512109e-04	9.685512280901e-04	1.013812119416e-03
199                 	1.563679009640e-04	7.439419578387e-04	9.725908101105e-04	1.023364986267e-03
200                 	1.568838107550e-04	7.540058604985e-04	9.763830746969e-04	1.022400013342e-03
201                 	1.627957568411e-04	7.618469676444e-04	9.793455064361e-04	1.027410900853e-03
202                 	1.657720160985e-04	7.703063820861e-04	9.825096912047e-04	1.035095187056e-03
203                 	1.698744231485e-04	7.788182958190e-04	9.861452997312e-04	1.042765612242e-03
204                 	1.717603634198e-04	7.870918578815e-04	9.888822749209e-04	1.045492413655e-03
205                 	1.772320640516e-04	7.927803025439e-04	9.901359187253e-04	1.037969237608e-03
206                 	1.797590852378e-04	7.975841313986e-04	9.893619194635e-04	1.034074521038e-03
207                 	1.828155645340e-04	8.036314588301e-04	9.878485799385e-04	1.020466492936e-03
208                 	1.875205576337e-04	8.069748583717e-04	9.850730877875e-04	1.033526575308e-03
209                 	1.913822878891e-04	8.124059104903e-04	9.824014755530e-04	1.017048000873e-03
210                 	1.944088541305e-04	8.148210726129e-04	9.776444461457e-04	1.009599644024e-03
211                 	1.944151496595e-04	8.165076627954e-04	9.730699075510e-04	9.885809780874e-04
212                 	1.972659145285e-04	8.190771930439e-04	9.687795883099e-04	9.976192058669e-04
213                 	1.938087926910e-04	8.214899717374e-04	9.648183895901e-04	9.932313064674e-04
214                 	1.929842369008e-04	8.230414023790e-04	9.619667904359e-04	9.864199193521e-04
215                 	1.918478875099e-04	8.257694971516e-04	9.595014354501e-04	9.794035534183e-04
216                 	1.908146349618e-04	8.266072982025e-04	9.570597273579e-04	9.735018348153e-04
217                 	1.921744085378e-04	8.302295157472e-04	9.550046256178e-04	9.712156633867e-04
218                 	1.947028013844e-04	8.316767018314e-04	9.525256264574e-04	9.744645644465e-04
219                 	1.935072255921e-04	8.337959510962e-04	9.494933961408e-04	9.530163610227e-04
220                 	1.952210733811e-04	8.337096226762e-04	9.462070116949e-04	9.308140349078e-04
221                 	2.000668631690e-04	8.346932551705e-04	9.421044942996e-04	9.265308756583e-04
222                 	2.016072491616e-04	8.367845766875e-04	9.378887739831e-04	9.140215769766e-04
223                 	2.068090124651e-04	8.366516010701e-04	9.333113302104e-04	9.069698426926e-04
224                 	2.068649108847e-04	8.384555865349e-04	9.284629368254e-04	9.072942798131e-04
225                 	2.143834657544e-04	8.399297502236e-04	9.235907128970e-04	9.086339455525e-04
226                 	2.156301768484e-04	8.397161385655e-04	9.170785615986e-04	9.119569432237e-04
227                 	2.227636864672e-04	8.416294340074e-04	9.113453495366e-04	9.188509949613e-04
228                 	2.230313543046e-04	8.438988575553e-04	9.048403011974e-04	9.203478983260e-04
229                 	2.272612169846e-04	8.448883724247e-04	8.976912013543e-04	9.114671166442e-04
230                 	2.315988198775e-04	8.451916991893e-04	8.915202456966e-04	8.991427670657e-04
231                 	2.291353690356e-04	8.451304949821e-04	8.843319488211e-04	8.952416599945e-04
232                 	2.227830398886e-04	8.454433253020e-04	8.788465943199e-04	8.922737678877e-04
233                 	2.146011262680e-04	8.444011378276e-04	8.759811331305e-04	8.839914886330e-04
234                 	2.146581262024e-04	8.427373170934e-04	8.739018037558e-04	8.717574634221e-04
235                 	2.170216489994e-04	8.417913019753e-04	8.723051341991e-04	8.659716431267e-04
236                 	2.150028230323e-04	8.425328374959e-04	8.693833001002e-04	8.444506669582e-04
237                 	2.169906162787e-04	8.415287601209e-04	8.664981347107e-04	8.203749748762e-04
238                 	2.222063498804e-04	8.405056061513e-04	8.626562500050e-04	7.977584077257e-04
239                 	2.237744075068e-04	8.402031823632e-04	8.587192779740e-04	7.874366802673e-04
240                 	2.227310114522e-04	8.418986446593e-04	8.546087468783e-04	7.730543318200e-04
241                 	2.280818421056e-04	8.420119066104e-04	8.501543998713e-04	7.637362456958e-04
242                 	2.307476201803e-04	8.416776417771e-04	8.450322892677e-04	7.626452323115e-04
243                 	2.333607898304e-04	8.418276809425e-04	8.399776059516e-04	7.649177607107e-04
244                 	2.335838949097e-04	8.424609240245e-04	8.346445174878e-04	7.583632772902e-04
245                 	2.442615981479e-04	8.421671037416e-04	8.286350686438e-04	7.508174455205e-04
246                 	2.463168021330e-04	8.420867675521e-04	8.222041846803e-04	7.424560587488e-04
247                 	2.535949603282e-04	8.421039732976e-04	8.145614501706e-04	7.347750532995e-04
248                 	2.540946720436e-04	8.411120831438e-04	8.075672399002e-04	7.300988411472e-04
249                 	2.504202436983e-04	8.406925561643e-04	8.019190901621e-04	7.275935687849e-04
250                 	2.395869794937e-04	8.376933371183e-04	7.984363524393e-04	7.198350509229e-04
251                 	2.361579724121e-04	8.355943623178e-04	7.962199970678e-04	7.139397957456e-04
252                 	2.383618169536e-04	8.342971272480e-04	7.937788334416e-04	7.004755139558e-04
253                 	2.397580147932e-04	8.329256126917e-04	7.911707124714e-04	6.846519891229e-04
254                 	2.435738135306e-04	8.335095369484e-04	7.883904752823e-04	6.719155611741e-04
255                 	2.478103929237e-04	8.331274707221e-04	7.849154967410e-04	6.634349153022e-04
256                 	2.472791166752e-04	8.327664401347e-04	7.813780398116e-04	6.561629767606e-04
257                 	2.507303325591e-04	8.327325322248e-04	7.778187751350e-04	6.459027612238e-04
258                 	2.485857219224e-04	8.326592574651e-04	7.732349600725e-04	6.367530349477e-04
259                 	2.549190858693e-04	8.320153046101e-04	7.685008501813e-04	6.297638352057e-04
260                 	2.629144999562e-04	8.312534544509e-04	7.630488748066e-04	6.247522801564e-04
261                 	2.664999278569e-04	8.310315146138e-04	7.570890490787e-04	6.190504960266e-04
262                 	2.783585549864e-04	8.304803743214e-04	7.503922840805e-04	6.162857928244e-04
263                 	2.930629395440e-04	8.304014755902e-04	7.435219040201e-04	6.159335153813e-04
264                 	2.849654640403e-04	8.304417474863e-04	7.350778556823e-04	6.161024883649e-04
265                 	2.768236963964e-04	8.272691478516e-04	7.299616963141e-04	6.129044042251e-04
266                 	2.746889971190e-04	8.244362966053e-04	7.258544446450e-04	6.083874085214e-04
267                 	2.694402549225e-04	8.216714659181e-04	7.227848558262e-04	6.025175119231e-04
268                 	2.763497095530e-04	8.165470393679e-04	7.160725225802e-04	5.921023221837e-04
269                 	2.769518033050e-04	8.168044108669e-04	7.149499495035e-04	5.834442752699e-04
270                 	2.810632310190e-04	8.180587273875e-04	7.134141768951e-04	5.714203588800e-04
271                 	2.828208729829e-04	8.196797166603e-04	7.112579226951e-04	5.613253782801e-04
272                 	2.873280575000e-04	8.186851743171e-04	7.071477030372e-04	5.545066856559e-04
273                 	2.990008631674e-04	8.144997552202e-04	6.992666198754e-04	5.467269381399e-04
274                 	2.914783055924e-04	8.140989788904e-04	6.957210399138e-04	5.383738294112e-04
275                 	2.937204105716e-04	8.154951630972e-04	6.926417679377e-04	5.297941031743e-04
276                 	3.103437607539e-04	8.108832568565e-04	6.833558326057e-04	5.231300561921e-04
277                 	3.142378453274e-04	8.103390863202e-04	6.787784435077e-04	5.200158030480e-04
278                 	3.280616267369e-04	8.107750911164e-04	6.731001602998e-04	5.149094477104e-04
279                 	3.388383290386e-04	8.083876591080e-04	6.631174943402e-04	5.131015869603e-04
280                 	3.253451727371e-04	8.057684591612e-04	6.585161066404e-04	5.063499883736e-04
281                 	3.252846110105e-04	8.051706168945e-04	6.556524011040e-04	5.045002067042e-04
282                 	3.188970569345e-04	8.038498976687e-04	6.535434833801e-04	5.017061821641e-04
283                 	3.217844128000e-04	8.022748139029e-04	6.509674958993e-04	4.966578942757e-04
284                 	3.358342952696e-04	7.986759848674e-04	6.454268368695e-04	4.890875426016e-04
285                 	3.327504731002e-04	7.995743012028e-04	6.447896950260e-04	4.763986443405e-04
286                 	3.349620497444e-04	7.997122242740e-04	6.422902532056e-04	4.654212590954e-04
287                 	3.392624227843e-04	7.995318311549e-04	6.386366400052e-04	4.558039792367e-04
288                 	3.467533970855e-04	7.984230426233e-04	6.340394903903e-04	4.465645218056e-04
289                 	3.539854134850e-04	7.963921080738e-04	6.285828996724e-04	4.402084362596e-04
290                 	3.653018851879e-04	7.924420682739e-04	6.207690737504e-04	4.349941500689e-04
291                 	3.742892390470e-04	7.916823219404e-04	6.160574330061e-04	4.311617993445e-04
292                 	3.977957564436e-04	7.908558352020e-04	6.095893953629e-04	4.269553909312e-04
293                 	4.148699693550e-04	7.885917483599e-04	6.014517209047e-04	4.254920457140e-04
294                 	3.981681758290e-04	7.847346719112e-04	5.957735780742e-04	4.237151955461e-04
295                 	3.954006467680e-04	7.846543968380e-04	5.920083528755e-04	4.189186347328e-04
296                 	4.135094565164e-04	7.821593655080e-04	5.872250778704e-04	4.132501209871e-04
297                 	4.098412378546e-04	7.805766560299e-04	5.843620586459e-04	4.096912308274e-04
298                 	4.065210528023e-04	7.793375146867e-04	5.822564986889e-04	4.004559680205e-04
299                 	4.089939030456e-04	7.778402067835e-04	5.791476982932e-04	3.931301151976e-04
300                 	4.156307548846e-04	7.768075067090e-04	5.751966413712e-04	3.838987631110e-04
301                 	4.251258955211e-04	7.752756436954e-04	5.705683822152e-04	3.754013231139e-04
302                 	4.404504083821e-04	7.735207240717e-04	5.654585029670e-04	3.685042182085e-04
303                 	4.580133527483e-04	7.702947679460e-04	5.592651581703e-04	3.633031963585e-04
304                 	4.629252699971e-04	7.682123232764e-04	5.536954082335e-04	3.593099060927e-04
305                 	4.865990114727e-04	7.656382444749e-04	5.463550333375e-04	3.541274080719e-04
306                 	5.206161644274e-04	7.613243513874e-04	5.384964599416e-04	3.514416330706e-04
307                 	4.845840212845e-04	7.589843623945e-04	5.325011512339e-04	3.476999996793e-04