# Wall shear stress 
# Time              	patch               	min                 	max                 
0.000000000000e+00	wall	(0.000000000000e+00 0.000000000000e+00 0.000000000000e+00)	(0.000000000000e+00 0.000000000000e+00 0.000000000000e+00)
1.000000000000e+02	wall	(9.587621794941e-12 -6.587312626579e-02 -2.539630213685e-01)	(6.679690504613e-09 1.034854451300e-01 5.835572969998e-01)
2.000000000000e+02	wall	(2.581300153102e-11 -8.021002249728e-03 -5.709323412060e-01)	(1.405155792651e-07 9.168859672600e-02 6.508458376616e-02)
3.000000000000e+02	wall	(4.595310931309e-11 -9.590831435386e-05 -7.649668899892e-01)	(9.273253861169e-09 8.193547603270e-02 -1.400985652899e-02)
4.000000000000e+02	wall	(6.941101624766e-11 -4.542025125022e-05 -8.731171162586e-01)	(1.121659813775e-08 8.907095339656e-02 -1.287086627511e-02)
5.000000000000e+02	wall	(9.354851952623e-11 -2.006997001759e-05 -9.158159940074e-01)	(1.222551135207e-08 9.375060785157e-02 -1.208629692375e-02)
5.590000000000e+02	wall	(1.073091869196e-10 -1.211250870473e-05 -9.278958656648e-01)	(1.254745309685e-08 9.507066932092e-02 -1.173385476591e-02)
