# Wall shear stress 
# Time              	patch               	min                 	max                 
0.000000000000e+00	wall	(0.000000000000e+00 0.000000000000e+00 0.000000000000e+00)	(0.000000000000e+00 0.000000000000e+00 0.000000000000e+00)
1.000000000000e+02	wall	(-1.949498776125e-13 -1.909876542169e+00 -4.019516649423e-01)	(4.322047033861e-11 2.733120763727e-02 4.049392549486e+00)
2.000000000000e+02	wall	(-3.244129895154e-13 -7.700125896188e-01 -1.659256492842e-01)	(2.014769625459e-10 2.636190103564e-02 5.447383370307e-01)
3.000000000000e+02	wall	(-3.027710462016e-13 -3.827130816335e-01 -1.210886198883e+00)	(6.583367778246e-10 6.288767826009e-02 1.104613367057e-01)
4.000000000000e+02	wall	(-2.253566372143e-13 -2.174316020161e-01 -1.718222675005e+00)	(8.041712350639e-11 2.526679536424e-01 1.256466519758e-01)
5.000000000000e+02	wall	(-8.988852511260e-14 -1.458283758584e-01 -1.905140819639e+00)	(7.117454712979e-11 3.975272440480e-01 1.421111486451e-01)
6.000000000000e+02	wall	(1.142441722062e-13 -9.641168699021e-02 -1.975637316202e+00)	(6.620518938264e-11 4.793773688210e-01 1.471790124634e-01)
7.000000000000e+02	wall	(3.929943893067e-13 -6.233338799967e-02 -2.002603366531e+00)	(6.270040562591e-11 5.289148167785e-01 1.497655998961e-01)
8.000000000000e+02	wall	(8.011679538601e-13 -3.623581683885e-02 -2.014338274395e+00)	(6.100607141951e-11 5.661218093242e-01 1.532008625235e-01)
9.000000000000e+02	wall	(9.933845117227e-13 -1.894135219942e-02 -2.019312948845e+00)	(6.295277213456e-11 5.903579642405e-01 1.553907082859e-01)
1.000000000000e+03	wall	(1.049922184487e-12 -5.416402693820e-03 -2.022296727057e+00)	(6.527115038879e-11 6.077327138784e-01 1.569395391830e-01)
1.100000000000e+03	wall	(1.094877942109e-12 -4.044562388592e-04 -2.023509796945e+00)	(6.683976903553e-11 6.186555568920e-01 1.578433748278e-01)
1.200000000000e+03	wall	(5.639919618488e-13 -4.101485512601e-04 -2.024761673630e+00)	(6.777033413961e-11 6.275294210736e-01 1.586239993517e-01)
1.300000000000e+03	wall	(3.928665055124e-13 -6.717787801324e-04 -2.025658122627e+00)	(6.848061838010e-11 6.348082035318e-01 1.592535286981e-01)
1.400000000000e+03	wall	(3.374006395383e-13 -9.860797699396e-04 -2.026273751555e+00)	(6.901276983541e-11 6.408233104726e-01 1.597608299699e-01)
1.500000000000e+03	wall	(3.073911456567e-13 -1.228094132699e-03 -2.026696431679e+00)	(6.929066830336e-11 6.458144946054e-01 1.601737951511e-01)
1.592000000000e+03	wall	(2.889169622500e-13 -1.437990532543e-03 -2.026951443760e+00)	(6.944214822141e-11 6.496326770995e-01 1.605160358326e-01)
