# Residuals         
# Time              	Ux                  	Uy                  	Uz                  	p                   
0                   	N/A	N/A
1                   	9.999279694514e-01	9.999999999979e-01	1.000000000000e+00	9.999999999856e-01
2                   	7.290433304305e-01	7.975616085692e-01	7.063047572337e-01	8.795071306193e-03
3                   	1.322897712905e-01	4.420673633810e-01	7.757150508374e-02	2.265655034422e-02
4                   	7.365562566369e-03	1.317683183236e-01	2.465145390965e-02	1.626302703894e-01
5                   	2.107820864267e-03	2.900389652206e-02	1.529084258234e-02	1.288694612857e-01
6                   	9.783683324221e-04	5.749214863731e-02	4.612091598389e-02	5.057907102340e-02
7                   	6.397736712294e-04	3.202900619536e-01	1.321755094148e-01	8.293494367369e-02
8                   	6.217326028873e-04	1.279617483423e-01	2.103349787352e-01	2.186156301568e-01
9                   	5.858751225133e-04	5.327403234542e-02	7.403093373387e-02	1.860139158348e-01
10                  	5.318846693529e-04	3.278352795761e-02	1.968653880179e-02	1.093628578674e-01
11                  	4.856170594381e-04	7.139341702269e-02	1.479419782760e-02	1.041579831460e-01
12                  	4.701269188975e-04	2.147027263440e-01	1.658108688105e-02	1.401383923205e-01
13                  	5.027916019258e-04	3.609087963560e-01	1.525187053768e-02	2.127236591999e-01
14                  	5.079736192688e-04	2.192005159712e-01	1.061827961862e-02	2.592985357770e-01
15                  	5.092901132330e-04	7.555903226582e-02	5.348742937711e-03	1.939264269779e-01
16                  	5.001162355746e-04	4.196865374003e-02	4.420161500631e-03	1.550366571863e-01
17                  	4.608378946467e-04	4.670199185512e-02	5.771537407181e-03	1.352261046856e-01
18                  	4.361997427714e-04	4.060023326324e-02	5.326139071977e-03	1.532562458364e-01
19                  	4.248747529741e-04	2.811033962559e-02	3.705545481932e-03	1.800850000673e-01
20                  	4.239241978149e-04	1.630213753329e-02	2.159668374192e-03	1.330230513874e-01
21                  	4.285252305234e-04	1.246240224529e-02	1.645304580023e-03	1.009467032359e-01
22                  	4.324599002976e-04	1.560772071635e-02	1.937338424766e-03	8.216414097025e-02
23                  	4.374705941948e-04	1.479829517184e-02	1.973854456230e-03	7.946701889766e-02
24                  	4.400157913744e-04	1.107619850779e-02	1.592328149708e-03	8.625255915748e-02
25                  	4.394034060920e-04	7.548227886688e-03	1.164926097555e-03	9.025167294137e-02
26                  	4.369164414366e-04	5.881517176527e-03	9.644847202722e-04	8.529228414013e-02
27                  	4.329988383218e-04	6.281480902270e-03	9.703421223185e-04	7.411952878425e-02
28                  	4.305191144460e-04	6.253912443313e-03	9.780612787363e-04	6.502712784913e-02
29                  	4.285824677866e-04	5.331457594077e-03	9.208350400148e-04	5.726724752939e-02
30                  	4.283700124174e-04	4.327617372257e-03	8.364266231489e-04	5.058718796318e-02
31                  	4.287724077225e-04	3.623880363517e-03	7.771889194378e-04	4.421454026609e-02
32                  	4.289317600629e-04	3.459021214919e-03	7.454800535344e-04	3.927053650367e-02
33                  	4.293952808893e-04	3.323138287219e-03	7.303067382252e-04	3.563762017902e-02
34                  	4.297945184849e-04	3.224046148630e-03	7.120160694199e-04	3.305716582961e-02
35                  	4.296917038304e-04	3.057814341138e-03	6.899612059938e-04	3.129609094484e-02
36                  	4.296665336778e-04	2.924689504907e-03	6.703256943220e-04	2.980512452187e-02
37                  	4.298061279652e-04	2.849356596408e-03	6.567747040732e-04	2.757086078959e-02
38                  	4.297890081557e-04	2.824904620637e-03	6.448269056767e-04	2.508305373436e-02
39                  	4.302230698960e-04	2.760706508050e-03	6.325319022720e-04	2.284693684435e-02
40                  	4.309562089960e-04	2.666467510370e-03	6.190715201423e-04	2.103882737265e-02
41                  	4.315887553658e-04	2.580356078620e-03	6.049880880051e-04	1.939633735169e-02
42                  	4.323678062606e-04	2.506745558296e-03	5.907048284386e-04	1.782452515268e-02
43                  	4.329432755631e-04	2.443326319265e-03	5.771974786488e-04	1.640194466236e-02
44                  	4.330147446271e-04	2.386893410888e-03	5.650416322371e-04	1.498827798693e-02
45                  	4.333195428486e-04	2.342209584304e-03	5.535269296056e-04	1.379415402468e-02
46                  	4.334619133390e-04	2.300467593883e-03	5.425722422974e-04	1.281912639224e-02
47                  	4.330439091555e-04	2.257837150434e-03	5.319819906357e-04	1.195656384484e-02
48                  	4.327923486674e-04	2.217930549833e-03	5.220748597292e-04	1.108326891120e-02
49                  	4.325690747365e-04	2.180019798134e-03	5.124241983201e-04	1.025286471447e-02
50                  	4.324159213956e-04	2.143450614320e-03	5.030807420215e-04	9.490801651657e-03
51                  	4.318828558788e-04	2.106162872186e-03	4.936195099190e-04	8.812673358476e-03
52                  	4.318536478946e-04	2.070321188530e-03	4.846543537451e-04	8.220576170182e-03
53                  	4.322991937383e-04	2.034271895520e-03	4.758529961188e-04	7.687215057378e-03
54                  	4.315909489345e-04	1.998623912736e-03	4.670855149889e-04	7.184710000826e-03
55                  	4.312187246394e-04	1.963787801634e-03	4.586729012177e-04	6.697941155676e-03
56                  	4.317574846549e-04	1.931491739094e-03	4.506486219532e-04	6.247630167452e-03
57                  	4.306395133766e-04	1.899359582349e-03	4.428155865797e-04	5.859968559044e-03
58                  	4.300715043553e-04	1.869031620265e-03	4.352202665122e-04	5.498332938072e-03
59                  	4.304111741381e-04	1.839241064855e-03	4.278776648893e-04	5.171440632048e-03
60                  	4.291318586517e-04	1.809655350120e-03	4.206407453468e-04	4.870588182333e-03
61                  	4.286465346908e-04	1.781280420123e-03	4.136926540911e-04	4.598849873676e-03
62                  	4.291038455627e-04	1.753185500441e-03	4.068460956884e-04	4.353333236929e-03
63                  	4.277924318169e-04	1.725638453110e-03	4.002060400273e-04	4.127657700591e-03
64                  	4.271855504650e-04	1.698599500784e-03	3.937523789670e-04	3.918569601115e-03
65                  	4.280078532017e-04	1.671764999471e-03	3.873766219785e-04	3.728385267604e-03
66                  	4.266140779367e-04	1.645884432442e-03	3.812659016922e-04	3.555579095329e-03
67                  	4.256133157683e-04	1.619961577761e-03	3.751504014243e-04	3.394651915029e-03
68                  	4.253136292816e-04	1.595293418654e-03	3.693829699608e-04	3.244493655257e-03
69                  	4.245325848272e-04	1.570552058857e-03	3.635945527559e-04	3.105697182056e-03
70                  	4.247029974481e-04	1.546880261435e-03	3.580921329576e-04	2.978492039217e-03
71                  	4.233292037333e-04	1.523441356167e-03	3.526455435784e-04	2.860138753526e-03
72                  	4.229572355823e-04	1.500657979704e-03	3.473571482265e-04	2.748142792197e-03
73                  	4.220727909565e-04	1.478423106855e-03	3.422043424100e-04	2.640368384292e-03
74                  	4.215149200625e-04	1.456668536317e-03	3.371559394615e-04	2.538303705164e-03
75                  	4.207566531201e-04	1.435361035299e-03	3.322049321547e-04	2.438517385313e-03
76                  	4.200506404739e-04	1.414553124667e-03	3.273862049822e-04	2.344387785536e-03
77                  	4.188972017657e-04	1.393774483395e-03	3.226296151995e-04	2.257674178423e-03
78                  	4.173011352964e-04	1.373854937531e-03	3.180913778886e-04	2.181435624762e-03
79                  	4.151470076402e-04	1.353681334978e-03	3.135160583856e-04	2.111125739233e-03
80                  	4.123588802220e-04	1.334705617962e-03	3.092271759819e-04	2.041268916061e-03
81                  	4.099305607878e-04	1.315458351889e-03	3.049008914831e-04	1.973950873511e-03
82                  	4.077935641407e-04	1.296841807303e-03	3.007502392051e-04	1.910985248364e-03
83                  	4.058865982351e-04	1.278334860864e-03	2.966324268117e-04	1.850246903013e-03
84                  	4.044543286214e-04	1.260267426337e-03	2.926273589005e-04	1.788004000341e-03
85                  	4.034739528613e-04	1.242320364149e-03	2.886988145503e-04	1.725246944888e-03
86                  	4.023188788363e-04	1.224869896206e-03	2.848701632800e-04	1.668470800787e-03
87                  	4.012751655374e-04	1.207794686146e-03	2.810778606038e-04	1.620005338391e-03
88                  	4.004769688665e-04	1.191139059609e-03	2.773771884428e-04	1.576103289358e-03
89                  	3.998742158710e-04	1.174602293680e-03	2.737345168668e-04	1.531359269653e-03
90                  	3.991222101473e-04	1.158352979678e-03	2.701978467987e-04	1.485277162887e-03
91                  	3.979006100373e-04	1.141918042014e-03	2.666772259641e-04	1.440859507074e-03
92                  	3.971086975301e-04	1.126682969683e-03	2.632986622003e-04	1.394196226748e-03
93                  	3.968821762712e-04	1.110782822370e-03	2.598526273639e-04	1.350475706151e-03
94                  	3.963649509058e-04	1.095796186998e-03	2.566167396512e-04	1.314128614575e-03
95                  	3.956611913572e-04	1.080872342963e-03	2.533493770578e-04	1.283925093135e-03
96                  	3.951431198474e-04	1.066190430440e-03	2.501205958967e-04	1.250614565126e-03
97                  	3.945301171741e-04	1.051840409081e-03	2.470093616461e-04	1.214980991476e-03
98                  	3.936224069450e-04	1.037290682528e-03	2.439470703215e-04	1.176833279140e-03
99                  	3.935276577311e-04	1.023394691882e-03	2.408743038977e-04	1.137389071282e-03
100                 	3.929851185406e-04	1.009790389740e-03	2.379337600174e-04	1.104338746497e-03
101                 	3.924797955136e-04	9.963129337346e-04	2.349975098188e-04	1.077640885117e-03
102                 	3.922115582750e-04	9.828292575093e-04	2.320970412300e-04	1.048137367970e-03
103                 	3.919630702775e-04	9.696958032848e-04	2.292330925314e-04	1.020412896010e-03
104                 	3.911433242055e-04	9.567828991089e-04	2.264335867405e-04	9.835061566789e-04
105                 	3.909183155843e-04	9.441754256112e-04	2.236784727914e-04	9.512132712042e-04
106                 	3.910597149055e-04	9.315347617428e-04	2.208924946426e-04	9.233608361868e-04
107                 	3.906181437940e-04	9.193068342350e-04	2.182378019635e-04	8.927830116670e-04
108                 	3.897512051215e-04	9.074437008922e-04	2.156404085308e-04	8.620649213348e-04
109                 	3.897857269628e-04	8.955227132742e-04	2.130193518779e-04	8.307709055564e-04
110                 	3.900324740082e-04	8.835955693095e-04	2.103882007272e-04	8.049333375582e-04
111                 	3.900753786253e-04	8.721196180360e-04	2.078419568811e-04	7.762130567449e-04
112                 	3.889517279488e-04	8.608025324154e-04	2.053438535649e-04	7.467913532045e-04
113                 	3.893615968051e-04	8.495699488934e-04	2.028280867513e-04	7.194055660091e-04
114                 	3.894102983013e-04	8.385621954810e-04	2.003581478254e-04	6.935807340237e-04
115                 	3.889495632987e-04	8.275514801417e-04	1.978880164757e-04	6.654339038930e-04
116                 	3.890125596108e-04	8.170381852187e-04	1.954967132913e-04	6.396220075260e-04
117                 	3.887873765999e-04	8.066582791927e-04	1.931508838858e-04	6.153547115588e-04
118                 	3.881449744072e-04	7.962879417977e-04	1.907882442476e-04	5.903797787016e-04
119                 	3.884111151728e-04	7.862272607035e-04	1.884872638470e-04	5.681110944206e-04
120                 	3.877448039385e-04	7.761035774857e-04	1.861652492976e-04	5.457007304075e-04
121                 	3.858287641396e-04	7.663926567022e-04	1.839409715991e-04	5.258004817231e-04
122                 	3.789249034413e-04	7.578367527972e-04	1.819979498764e-04	5.077503623835e-04
123                 	3.751302977027e-04	7.494070798463e-04	1.801489037607e-04	4.924753845799e-04
124                 	3.743472368406e-04	7.406911403115e-04	1.782232658672e-04	4.783082336455e-04
125                 	3.738811640355e-04	7.319385663843e-04	1.762979812287e-04	4.647918073714e-04
126                 	3.733244892968e-04	7.232667447625e-04	1.743960050335e-04	4.523997663070e-04
127                 	3.726385571657e-04	7.146976172566e-04	1.725268359214e-04	4.413084183729e-04
128                 	3.719250472554e-04	7.062395371399e-04	1.706936574483e-04	4.313109517506e-04
129                 	3.711870254277e-04	6.979068061455e-04	1.688962956048e-04	4.217424168669e-04
130                 	3.703914203110e-04	6.897136921639e-04	1.671347882044e-04	4.125925109677e-04
131                 	3.695048963596e-04	6.816545275226e-04	1.654082261529e-04	4.036858869854e-04
132                 	3.686023179231e-04	6.737282852879e-04	1.637140085438e-04	3.951034232831e-04
133                 	3.677100551505e-04	6.659288049058e-04	1.620511443886e-04	3.866935929892e-04
134                 	3.667966537411e-04	6.582186905277e-04	1.604164737334e-04	3.749886583103e-04
135                 	3.658061227675e-04	6.507216420803e-04	1.588160896210e-04	3.693403344366e-04
136                 	3.647409095936e-04	6.432468193610e-04	1.572397221576e-04	3.599601851846e-04
137                 	3.636998560557e-04	6.359734896741e-04	1.556940086937e-04	3.548988117790e-04
138                 	3.626403632138e-04	6.287412417935e-04	1.541705553412e-04	3.460049224515e-04
139                 	3.615059854482e-04	6.216403630193e-04	1.526740969110e-04	3.385766252360e-04
140                 	3.603003998671e-04	6.146734580946e-04	1.512029653628e-04	3.320281643458e-04
141                 	3.591215242632e-04	6.078256607806e-04	1.497556443937e-04	3.260239070912e-04
142                 	3.579202710998e-04	6.010752134184e-04	1.483306784527e-04	3.200500545698e-04
143                 	3.566353876692e-04	5.944194556141e-04	1.469275347487e-04	3.140979446907e-04
144                 	3.553452443961e-04	5.878621318110e-04	1.455459371766e-04	3.081823597230e-04
145                 	3.540639158146e-04	5.814036307215e-04	1.441853157394e-04	3.024195693337e-04
146                 	3.527278416092e-04	5.750469261658e-04	1.428451811496e-04	2.967983673768e-04
147                 	3.513690373070e-04	5.687861977443e-04	1.415247016467e-04	2.914899381145e-04
148                 	3.500392544706e-04	5.626197751404e-04	1.402236421524e-04	2.863158232249e-04
149                 	3.486571895942e-04	5.565462724308e-04	1.389412644011e-04	2.812148817035e-04
150                 	3.472671705525e-04	5.505640693779e-04	1.376770842281e-04	2.764259482676e-04
151                 	3.458786921872e-04	5.446721771845e-04	1.364307620111e-04	2.716904233046e-04
152                 	3.444519441139e-04	5.388676405729e-04	1.352020442770e-04	2.670654329476e-04
153                 	3.430420284899e-04	5.331483528790e-04	1.339903371012e-04	2.625580183944e-04
154                 	3.416030999880e-04	5.275117100286e-04	1.327951462520e-04	2.581248414883e-04
155                 	3.401711602031e-04	5.219586532550e-04	1.316160567710e-04	2.537955371420e-04
156                 	3.387157933688e-04	5.164869486587e-04	1.304528661729e-04	2.495935741329e-04
157                 	3.372668826196e-04	5.110974063682e-04	1.293052542204e-04	2.455235815724e-04
158                 	3.357890134716e-04	5.057903089273e-04	1.281729113900e-04	2.416022242722e-04
159                 	3.342783305945e-04	5.005631053423e-04	1.270558122690e-04	2.378737622781e-04
160                 	3.326993147535e-04	4.954133660341e-04	1.259543203641e-04	2.343100919932e-04
161                 	3.309431823194e-04	4.903400446208e-04	1.248670048466e-04	2.309252829464e-04
162                 	3.288503770264e-04	4.853480663711e-04	1.237938661342e-04	2.264851089432e-04
163                 	3.263337363212e-04	4.804256525416e-04	1.227340132614e-04	2.232439076593e-04
164                 	3.235703601852e-04	4.755696312842e-04	1.216871751202e-04	2.198417398864e-04
165                 	3.208488507633e-04	4.707809394390e-04	1.206532461272e-04	2.162868851427e-04
166                 	3.183135871961e-04	4.660688515344e-04	1.196323162662e-04	2.129145651492e-04
167                 	3.159818973904e-04	4.614205208322e-04	1.186238377398e-04	2.098558815264e-04
168                 	3.140369098596e-04	4.568369950218e-04	1.176279040455e-04	2.067357866300e-04
169                 	3.122946309008e-04	4.523151066646e-04	1.166438925758e-04	2.035753141271e-04
170                 	3.106430450244e-04	4.478558853890e-04	1.156716748532e-04	2.006179352734e-04
171                 	3.090157322311e-04	4.434627205509e-04	1.147112165131e-04	1.978106246579e-04
172                 	3.073992180022e-04	4.391339814747e-04	1.137622646799e-04	1.950934687369e-04
173                 	3.057943362814e-04	4.348646634314e-04	1.128243160355e-04	1.924345350976e-04
174                 	3.042041224561e-04	4.306523438574e-04	1.118973758514e-04	1.898738510388e-04
175                 	3.026321798725e-04	4.264963274792e-04	1.109811227895e-04	1.873420347700e-04
176                 	3.011152809112e-04	4.223971736285e-04	1.100753986723e-04	1.848126539090e-04
177                 	2.996538383226e-04	4.183548060258e-04	1.091802243618e-04	1.823654076629e-04
178                 	2.982179157785e-04	4.143650359976e-04	1.082954076144e-04	1.799435828082e-04
179                 	2.968008165540e-04	4.104297984815e-04	1.074206933115e-04	1.775782653073e-04
180                 	2.953988947117e-04	4.065487472325e-04	1.065559135064e-04	1.753207943860e-04
181                 	2.940118404048e-04	4.027186825675e-04	1.057008808844e-04	1.731200513548e-04
182                 	2.926381725302e-04	3.989391033094e-04	1.048555484834e-04	1.709943674658e-04
183                 	2.912778370556e-04	3.952090064609e-04	1.040197192654e-04	1.688793485562e-04
184                 	2.899320345190e-04	3.915250824883e-04	1.031931118158e-04	1.667521052501e-04
185                 	2.885996702755e-04	3.878929584891e-04	1.023757435539e-04	1.646815101695e-04
186                 	2.872807696445e-04	3.843114470262e-04	1.015674528462e-04	1.626577359945e-04
187                 	2.859749994850e-04	3.807787414220e-04	1.007681719987e-04	1.606876328443e-04
188                 	2.846823654108e-04	3.772932462669e-04	9.997777709194e-05	1.587268010566e-04
189                 	2.834034915966e-04	3.738522946814e-04	9.919603189011e-05	1.567764954885e-04
190                 	2.821439974475e-04	3.704567844032e-04	9.842297328558e-05	1.548884929708e-04
191                 	2.809050360466e-04	3.671043958358e-04	9.765834371287e-05	1.529967908937e-04
192                 	2.796817755064e-04	3.637957545440e-04	9.690208006609e-05	1.511952291591e-04
193                 	2.784722403437e-04	3.605248020321e-04	9.615391860416e-05	1.494292460277e-04
194                 	2.772752185085e-04	3.572946927343e-04	9.541397936204e-05	1.476526983345e-04
195                 	2.760909021134e-04	3.541050190164e-04	9.468212604083e-05	1.458955147569e-04
196                 	2.749173540176e-04	3.509535852112e-04	9.395777966589e-05	1.443267177753e-04
197                 	2.737559205683e-04	3.478451404504e-04	9.324142740990e-05	1.428021098945e-04
198                 	2.726060702980e-04	3.447766401638e-04	9.253251749594e-05	1.412837182183e-04
199                 	2.714668637973e-04	3.417459918267e-04	9.183111472808e-05	1.397688566417e-04
200                 	2.703382918306e-04	3.387521774669e-04	9.113708187712e-05	1.382403756380e-04
201                 	2.692203075795e-04	3.357946287069e-04	9.045027099792e-05	1.367321884140e-04
202                 	2.681126211580e-04	3.328734298948e-04	8.977050024262e-05	1.352533230519e-04
203                 	2.670148781207e-04	3.299872056279e-04	8.909780043498e-05	1.338057716544e-04
204                 	2.659275304384e-04	3.271353275764e-04	8.843207926173e-05	1.324275924274e-04
205                 	2.648502101333e-04	3.243198777964e-04	8.777268127343e-05	1.310681431180e-04
206                 	2.637822523704e-04	3.215382452237e-04	8.712041390804e-05	1.297408718767e-04
207                 	2.627237715550e-04	3.187906197332e-04	8.647490305355e-05	1.284413755371e-04
208                 	2.616746458746e-04	3.160751247635e-04	8.583601336398e-05	1.271819604656e-04
209                 	2.606346096171e-04	3.133917077527e-04	8.520357876323e-05	1.259530147419e-04
210                 	2.596038675299e-04	3.107392854253e-04	8.457751242927e-05	1.247510895795e-04
211                 	2.585823848540e-04	3.081174921365e-04	8.395783393490e-05	1.235398744069e-04
212                 	2.575696792086e-04	3.055256462222e-04	8.334439287997e-05	1.223303159066e-04
213                 	2.565656640255e-04	3.029632818298e-04	8.273702778369e-05	1.211456222255e-04
214                 	2.555701382773e-04	3.004313471791e-04	8.213564205332e-05	1.199474347794e-04
215                 	2.545830161540e-04	2.979298688472e-04	8.154021316670e-05	1.187721153155e-04
216                 	2.536043419568e-04	2.954571728077e-04	8.095078628000e-05	1.176349421177e-04
217                 	2.526341697438e-04	2.930135561292e-04	8.036725803898e-05	1.164926047630e-04
218                 	2.516719588290e-04	2.905993195877e-04	7.978937707541e-05	1.153578799183e-04
219                 	2.507175300673e-04	2.882134530494e-04	7.921719544448e-05	1.142897663739e-04
220                 	2.497707843500e-04	2.858559946718e-04	7.865056841316e-05	1.133293266225e-04
221                 	2.488319989313e-04	2.835255136160e-04	7.808950594357e-05	1.123858985788e-04
222                 	2.479013271764e-04	2.812210614405e-04	7.753403120384e-05	1.114792713795e-04
223                 	2.469782701869e-04	2.789427101217e-04	7.698400005510e-05	1.105549143031e-04
224                 	2.460626437117e-04	2.766897835429e-04	7.643933325959e-05	1.096414877460e-04
225                 	2.451540204816e-04	2.744615582542e-04	7.589998926614e-05	1.087295495255e-04
226                 	2.442523248995e-04	2.722581557832e-04	7.536598522175e-05	1.078109933609e-04
227                 	2.433575496508e-04	2.700783474805e-04	7.483711426127e-05	1.068972701475e-04
228                 	2.424697016498e-04	2.679220352110e-04	7.431333852406e-05	1.059902220996e-04
229                 	2.415884802168e-04	2.657892624206e-04	7.379463394925e-05	1.050936115738e-04
230                 	2.407137928644e-04	2.636809098517e-04	7.328095871472e-05	1.042061297435e-04
231                 	2.398453192761e-04	2.615953474658e-04	7.277221351500e-05	1.033359438251e-04
232                 	2.389829386499e-04	2.595325241546e-04	7.226830680175e-05	1.024895750514e-04
233                 	2.381269396112e-04	2.574929615848e-04	7.176922257468e-05	1.016545575184e-04
234                 	2.372767518737e-04	2.554765469024e-04	7.127492883712e-05	1.008307008055e-04
235                 	2.364323992786e-04	2.534817198073e-04	7.078531081705e-05	1.000083560587e-04
236                 	2.355936653212e-04	2.515089112392e-04	7.030021214185e-05	9.925865841548e-05
237                 	2.347604572343e-04	2.495571090788e-04	6.981973159759e-05	9.855037619504e-05
238                 	2.339331091238e-04	2.476257953342e-04	6.934376093712e-05	9.783378882947e-05
239                 	2.331110379727e-04	2.457149389595e-04	6.887237736988e-05	9.709964154657e-05
240                 	2.322941428236e-04	2.438247271282e-04	6.840552194697e-05	9.636606862831e-05
241                 	2.314824274054e-04	2.419559447010e-04	6.794301006075e-05	9.563749379661e-05
242                 	2.306756944863e-04	2.401074374582e-04	6.748487779079e-05	9.490068072233e-05
243                 	2.298738696072e-04	2.382787210358e-04	6.703101748071e-05	9.416228372006e-05
244                 	2.290765136289e-04	2.364694989925e-04	6.658143441791e-05	9.342421756568e-05
245                 	2.282835070403e-04	2.346793880992e-04	6.613603859738e-05	9.268551381115e-05
246                 	2.274949305198e-04	2.329081787818e-04	6.569478751085e-05	9.195792954604e-05
247                 	2.267108700519e-04	2.311562275975e-04	6.525767169371e-05	9.127314429934e-05
248                 	2.259305114523e-04	2.294230101016e-04	6.482463745021e-05	9.057946823191e-05
249                 	2.251537169548e-04	2.277084269379e-04	6.439557488353e-05	8.987674085170e-05
250                 	2.243803617333e-04	2.260113673229e-04	6.397044520155e-05	8.917959481940e-05
251                 	2.236108276501e-04	2.243318747297e-04	6.354931669764e-05	8.849452358535e-05
252                 	2.228444492680e-04	2.226694869958e-04	6.313205205351e-05	8.781439048806e-05
253                 	2.220808042644e-04	2.210247487874e-04	6.271858620155e-05	2.353047044448e-04
254                 	2.212825877436e-04	2.143581597553e-04	6.254081284735e-05	1.783815364061e-04
255                 	2.204926480288e-04	2.100167186442e-04	6.227965294193e-05	1.174060941692e-04
256                 	2.197102579476e-04	2.079892458972e-04	6.193736092123e-05	1.056577061836e-04
257                 	2.189337064889e-04	2.068548292111e-04	6.155949007923e-05	1.020413594133e-04
258                 	2.181615687885e-04	2.057956074317e-04	6.117500251207e-05	9.468222905434e-05
259                 	2.173933461553e-04	2.045908624507e-04	6.079585483337e-05	8.771862376949e-05
260                 	2.166287362655e-04	2.032474620274e-04	6.042404826904e-05	8.315833751866e-05
261                 	2.158670437553e-04	2.018344004670e-04	6.005825588559e-05	8.087092348816e-05
262                 	2.151083119953e-04	2.004045004564e-04	5.969665440551e-05	8.013464813777e-05
263                 	2.143528240691e-04	1.989796511958e-04	5.933794757161e-05	7.986872331882e-05
264                 	2.136002611376e-04	1.975659201038e-04	5.898205058157e-05	7.946263347548e-05
265                 	2.128498855203e-04	1.961651635244e-04	5.862870542654e-05	7.878718760496e-05
266                 	2.121012942889e-04	1.947805788699e-04	5.827789679554e-05	7.795134286098e-05
267                 	2.113546808979e-04	1.934145111423e-04	5.792979639459e-05	7.715583177474e-05
268                 	2.106095186992e-04	1.920686176371e-04	5.758457686911e-05	7.650444021570e-05
269                 	2.098657489462e-04	1.907403904066e-04	5.724209567923e-05	7.594800962980e-05
270                 	2.091238266075e-04	1.894263828478e-04	5.690234520783e-05	7.543678912082e-05
271                 	2.083830891353e-04	1.881244085822e-04	5.656528173323e-05	7.493104316851e-05
272                 	2.076438689228e-04	1.868331350248e-04	5.623090866274e-05	7.442444765221e-05
273                 	2.069061956234e-04	1.855508540791e-04	5.589917670002e-05	7.393792190221e-05
274                 	2.061702061019e-04	1.842791370817e-04	5.557001550018e-05	7.346643966455e-05
275                 	2.054357198822e-04	1.830187467796e-04	5.524344781545e-05	7.299498899049e-05
276                 	2.047035660513e-04	1.817699613473e-04	5.491946978747e-05	7.252397093935e-05
277                 	2.039728319256e-04	1.805342283031e-04	5.459801158487e-05	7.204697914890e-05
278                 	2.032454201730e-04	1.793103085929e-04	5.427902616833e-05	7.155610352000e-05
279                 	2.025199085275e-04	1.780978968502e-04	5.396249395703e-05	7.106520357212e-05
280                 	2.017980093423e-04	1.768967519457e-04	5.364842331974e-05	7.057430554122e-05
281                 	2.010792397530e-04	1.757065267640e-04	5.333678047703e-05	7.004764176665e-05
282                 	2.003641540116e-04	1.745275608331e-04	5.302749242885e-05	6.954498654351e-05
283                 	1.996531346374e-04	1.733593171283e-04	5.272055529917e-05	6.911261266377e-05
284                 	1.989464495948e-04	1.722019016580e-04	5.241596601632e-05	6.868176556175e-05
285                 	1.982444443224e-04	1.710547506248e-04	5.211371681962e-05	6.824270080454e-05
286                 	1.975475376720e-04	1.699179487694e-04	5.181379437435e-05	6.779235341833e-05
287                 	1.968558085270e-04	1.687914681230e-04	5.151618781500e-05	6.733266078034e-05
288                 	1.961703953676e-04	1.676751765224e-04	5.122088154366e-05	6.686950350944e-05
289                 	1.954902543644e-04	1.665690331321e-04	5.092785384409e-05	6.640141000502e-05
290                 	1.948171717750e-04	1.654732259392e-04	5.063706012713e-05	6.590292727105e-05
291                 	1.941503534701e-04	1.643874083551e-04	5.034845050418e-05	6.539022844589e-05
292                 	1.934898501930e-04	1.633115274164e-04	5.006201600092e-05	6.490386378684e-05
293                 	1.928372147264e-04	1.622452912839e-04	4.977774591549e-05	6.445677156523e-05
294                 	1.921917825110e-04	1.611888706490e-04	4.949564192168e-05	6.401041296005e-05
295                 	1.915539574719e-04	1.601416611191e-04	4.921567674213e-05	6.355497118929e-05
296                 	1.909239411803e-04	1.591035557639e-04	4.893777788790e-05	6.310521607504e-05
297                 	1.903027098406e-04	1.580743686905e-04	4.866194071738e-05	6.265488889310e-05
298                 	1.896903415646e-04	1.570541269001e-04	4.838816029617e-05	6.223204766932e-05
299                 	1.890878873267e-04	1.560427343178e-04	4.811638679381e-05	6.180340498235e-05
300                 	1.884978087544e-04	1.550402708586e-04	4.784661803504e-05	6.137311453256e-05
301                 	1.879211247754e-04	1.540465458460e-04	4.757889805466e-05	6.092477035987e-05
302                 	1.873601734756e-04	1.530616876979e-04	4.731317883552e-05	6.044315223122e-05
303                 	1.868014752982e-04	1.520859948633e-04	4.704932082316e-05	5.997581357262e-05
304                 	1.862446539121e-04	1.511191576049e-04	4.678750713074e-05	5.952857467040e-05
305                 	1.856897686744e-04	1.501607620195e-04	4.652760137476e-05	5.909977664231e-05
306                 	1.851371377194e-04	1.492106413695e-04	4.626958712197e-05	5.867589407772e-05
307                 	1.845867231206e-04	1.482686019467e-04	4.601345027864e-05	5.825440337564e-05