# Wall shear stress 
# Time              	patch               	min                 	max                 
0.000000000000e+00	wall	(0.000000000000e+00 0.000000000000e+00 0.000000000000e+00)	(0.000000000000e+00 0.000000000000e+00 0.000000000000e+00)
1.000000000000e+02	wall	(-8.630742295154e-12 -5.024353013979e+00 -2.683987749997e+00)	(1.089458732770e-10 3.296540424510e+00 4.274769444696e+01)
2.000000000000e+02	wall	(-7.178578537021e-13 -3.703924008059e+00 -4.971553090617e-01)	(4.053667159790e-10 2.370455293762e-02 1.527177112368e+01)
3.000000000000e+02	wall	(-8.069839006494e-13 -1.778366217978e+00 -9.847579166392e-02)	(2.944338521089e-10 2.107090453972e-02 4.853939707612e+00)
4.000000000000e+02	wall	(-6.011578644956e-13 -8.530734351871e-01 -2.688575018912e-01)	(7.736267111813e-09 1.845880249936e-02 1.678633899977e+00)
5.000000000000e+02	wall	(-2.574562307834e-13 -4.708560734028e-01 -4.724228611907e-01)	(1.383858101607e-08 1.635693106290e-02 6.352696708254e-01)
6.000000000000e+02	wall	(2.179331390919e-13 -3.346134181106e-01 -5.611383588838e-01)	(6.493657960356e-09 1.470291735942e-02 2.917254178159e-01)
7.000000000000e+02	wall	(7.453327737355e-13 -2.660861666339e-01 -6.393652562511e-01)	(4.891766317031e-09 2.063498614650e-02 2.010881542107e-01)
8.000000000000e+02	wall	(7.717628433162e-13 -2.159937810962e-01 -7.055444101124e-01)	(1.085222477511e-08 2.905059014429e-02 1.450439653213e-01)
9.000000000000e+02	wall	(9.798948077409e-13 -1.711561573956e-01 -7.591491232950e-01)	(9.029962919162e-11 3.623570070757e-02 1.289345732015e-01)
1.000000000000e+03	wall	(8.929924288914e-13 -1.454878320824e-01 -8.008463709480e-01)	(7.562857082877e-11 7.203909168559e-02 1.142976971129e-01)
1.100000000000e+03	wall	(8.976864409263e-13 -1.222888860767e-01 -8.320090481367e-01)	(6.177814749826e-11 1.213875162283e-01 1.009569289673e-01)
1.200000000000e+03	wall	(9.259523132942e-13 -1.010488938081e-01 -8.543624859316e-01)	(5.374847107464e-11 1.550194552193e-01 8.866619681705e-02)
1.300000000000e+03	wall	(9.611412412794e-13 -8.147108994120e-02 -8.701965823771e-01)	(5.156835122341e-11 1.794662938694e-01 7.721340914343e-02)
1.400000000000e+03	wall	(9.952251894045e-13 -6.348631044767e-02 -8.811786043724e-01)	(5.452541047511e-11 1.996659683626e-01 6.640227226416e-02)
1.500000000000e+03	wall	(1.027953498770e-12 -4.867830984555e-02 -8.878481577684e-01)	(5.681442186359e-11 2.154852069030e-01 6.126753426412e-02)
1.600000000000e+03	wall	(1.058798964605e-12 -3.481142966887e-02 -8.923338522385e-01)	(5.863621095952e-11 2.284874886289e-01 6.126541750788e-02)
1.700000000000e+03	wall	(1.086237692808e-12 -2.280522737462e-02 -8.950297385623e-01)	(6.003924727978e-11 2.388022220965e-01 6.134309693086e-02)
1.800000000000e+03	wall	(1.112460476204e-12 -1.364626795236e-02 -8.964372267400e-01)	(6.109807091508e-11 2.481267411635e-01 6.240521387277e-02)
1.900000000000e+03	wall	(1.134683095521e-12 -8.562648964500e-03 -8.973123191589e-01)	(6.189223134692e-11 2.554865293386e-01 6.325965916984e-02)
2.000000000000e+03	wall	(1.152379852169e-12 -5.270374113429e-03 -8.977481188154e-01)	(1.080432875699e-10 2.604463949296e-01 6.377563521845e-02)
2.008000000000e+03	wall	(1.153413441266e-12 -5.016645981777e-03 -8.977024894771e-01)	(9.696472087730e-11 2.606453415182e-01 6.381458236128e-02)
