# Wall shear stress 
# Time              	patch               	min                 	max                 
0.000000000000e+00	wall	(0.000000000000e+00 0.000000000000e+00 0.000000000000e+00)	(0.000000000000e+00 0.000000000000e+00 0.000000000000e+00)
1.000000000000e+02	wall	(-3.208567645607e-12 -4.069330794182e-01 -1.013990503526e-01)	(1.315426498812e-12 4.532212637632e-02 8.547349233075e-01)
2.000000000000e+02	wall	(-1.197668818987e-10 -1.833578381072e-03 -5.380540383205e-01)	(4.285590441954e-12 2.502144715637e-01 8.028744480273e-02)
3.000000000000e+02	wall	(-2.669546745616e-13 -1.612983668352e-04 -1.115947953353e+00)	(1.046806356629e-11 5.309161525295e-01 -2.554704982014e-03)
4.000000000000e+02	wall	(1.214783050648e-13 -1.764749077546e-03 -1.330298561201e+00)	(1.456461421113e-11 6.400125495281e-01 -2.814988202185e-03)
5.000000000000e+02	wall	(1.842703173025e-13 -1.614942207065e-03 -1.402352487316e+00)	(1.684909785109e-11 6.791121311775e-01 -3.001185193140e-03)
6.000000000000e+02	wall	(2.117589247872e-13 -1.728062438592e-03 -1.427563801775e+00)	(1.808653584107e-11 6.929922005127e-01 -3.142735771509e-03)
6.210000000000e+02	wall	(2.159049171914e-13 -1.738675450979e-03 -1.430730363913e+00)	(1.826452540326e-11 6.947151604387e-01 -3.164045980196e-03)
