# Wall shear stress 
# Time              	patch               	min                 	max                 
0.000000000000e+00	wall	(0.000000000000e+00 0.000000000000e+00 0.000000000000e+00)	(0.000000000000e+00 0.000000000000e+00 0.000000000000e+00)
2.500000000000e-05	wall	(-1.691458542219e-09 -1.249754532592e-01 -1.866646553936e+00)	(1.177310592683e-09 1.013059262305e+00 -8.701814465658e-02)
5.000000000000e-05	wall	(-2.952973166128e-09 -1.861102129916e+02 -1.187612615926e+01)	(1.592327792635e-08 1.906593442700e+01 2.836194850484e+02)
7.500000000000e-05	wall	(-4.964506248468e-08 -2.437056599908e+02 -3.271005312394e+03)	(7.429289383857e-08 2.327379185592e+03 2.223539035925e+02)
1.000000000000e-04	wall	(-1.242959962695e-07 -2.869004396990e+04 -2.562489219275e+03)	(8.793150765404e-08 2.498014829546e+03 3.031566223009e+04)
