# Wall shear stress 
# Time              	patch               	min                 	max                 
0.000000000000e+00	wall	(0.000000000000e+00 0.000000000000e+00 0.000000000000e+00)	(0.000000000000e+00 0.000000000000e+00 0.000000000000e+00)
1.000000000000e+02	wall	(2.153703105638e-12 -1.036921117951e-05 -3.782288502181e-01)	(1.064565123756e-09 3.778706702161e-02 -4.204878716789e-03)
2.000000000000e+02	wall	(6.880247239075e-12 -2.862346389320e-06 -5.370790581925e-01)	(3.512900163025e-09 5.521519388449e-02 -3.817566318581e-03)
3.000000000000e+02	wall	(1.314507540064e-11 4.070298015125e-09 -5.901284186433e-01)	(5.054390315019e-09 6.077269305299e-02 -3.515946680194e-03)
4.000000000000e+02	wall	(2.051871913609e-11 8.506746634062e-07 -6.059756910385e-01)	(5.796432689197e-09 6.248199628221e-02 -3.317130023586e-03)
5.000000000000e+02	wall	(2.834666627619e-11 4.602562060918e-07 -6.116101209941e-01)	(6.140070947268e-09 6.309806009404e-02 -3.183008870036e-03)
5.070000000000e+02	wall	(2.889150690819e-11 4.317769298038e-07 -6.118103171564e-01)	(6.155584170150e-09 6.311990510409e-02 -3.176144256742e-03)
