# Wall shear stress 
# Time              	patch               	min                 	max                 
0.000000000000e+00	wall	(0.000000000000e+00 0.000000000000e+00 0.000000000000e+00)	(0.000000000000e+00 0.000000000000e+00 0.000000000000e+00)
1.000000000000e+02	wall	(-1.645113064842e-12 -2.143487454083e+01 -4.316285644597e+00)	(4.155076054440e-10 1.483357036925e-01 4.613860160157e+01)
2.000000000000e+02	wall	(-2.442339331363e-12 -8.859865824081e+00 -7.507591534036e-01)	(8.366706789595e-10 1.018954916048e-01 6.686911010163e+00)
3.000000000000e+02	wall	(-2.681457895441e-12 -3.611417913181e+00 -1.929726920638e+00)	(1.295191369229e-08 9.295240725553e-02 1.901300423963e+00)
4.000000000000e+02	wall	(-2.575683371736e-12 -2.188513389467e+00 -4.560842794531e+00)	(3.708083360974e-08 1.425426936234e-01 8.773539530590e-01)
5.000000000000e+02	wall	(-1.731091346827e-12 -1.570384629412e+00 -6.003609015074e+00)	(6.330812216025e-10 2.865593130158e-01 7.819909577298e-01)
6.000000000000e+02	wall	(-1.485073123984e-13 -1.130137406681e+00 -6.774171572886e+00)	(4.810403130311e-10 6.452439200063e-01 6.919029610748e-01)
7.000000000000e+02	wall	(1.870949764066e-12 -8.815632284489e-01 -7.188254946242e+00)	(3.980994395734e-10 1.176780868638e+00 6.058360160328e-01)
8.000000000000e+02	wall	(4.180701138698e-12 -6.766446241729e-01 -7.415216980871e+00)	(3.489798990908e-10 1.500855044459e+00 5.475003061051e-01)
9.000000000000e+02	wall	(5.175094138558e-12 -5.059897877932e-01 -7.541525075908e+00)	(3.186039270913e-10 1.730625417853e+00 5.489688251450e-01)
1.000000000000e+03	wall	(5.437700314290e-12 -3.710707713844e-01 -7.607560842188e+00)	(2.998630172558e-10 1.898149744983e+00 5.530163198608e-01)
1.100000000000e+03	wall	(5.655647353851e-12 -2.576875711746e-01 -7.643684086618e+00)	(3.066448556465e-10 2.018472948687e+00 5.556275923187e-01)
1.200000000000e+03	wall	(5.822549967273e-12 -1.612112533911e-01 -7.663331196421e+00)	(3.167162645654e-10 2.125472962602e+00 5.651968319066e-01)
1.300000000000e+03	wall	(5.965905062424e-12 -9.493888730620e-02 -7.672468930177e+00)	(3.238908087266e-10 2.200579055894e+00 5.721826253203e-01)
1.400000000000e+03	wall	(6.092275159032e-12 -4.617946686258e-02 -7.679106282453e+00)	(3.291438501910e-10 2.259182562834e+00 5.776125789729e-01)
1.500000000000e+03	wall	(6.208935034610e-12 -2.031173988774e-02 -7.681748721291e+00)	(3.328767595880e-10 2.298364714842e+00 5.810843186063e-01)
1.600000000000e+03	wall	(6.295159031054e-12 -1.901814301320e-03 -7.685190877075e+00)	(3.352001965116e-10 2.330350565090e+00 5.841486264530e-01)
1.700000000000e+03	wall	(4.026413204632e-12 -2.007784688992e-03 -7.688160919782e+00)	(3.366010046475e-10 2.358183257306e+00 5.868413270559e-01)
1.800000000000e+03	wall	(3.125017739552e-12 -3.767879716130e-03 -7.690417891962e+00)	(3.375299239667e-10 2.382349233284e+00 5.891329660794e-01)
1.900000000000e+03	wall	(2.668909906301e-12 -5.153893205605e-03 -7.692088600520e+00)	(3.379513231307e-10 2.403204552198e+00 5.910765386936e-01)
2.000000000000e+03	wall	(2.396463232125e-12 -6.259596686324e-03 -7.693283405223e+00)	(3.382682484134e-10 2.421158169768e+00 5.927161584733e-01)
2.054000000000e+03	wall	(2.304986255038e-12 -7.136257844409e-03 -7.693596661867e+00)	(3.384130789893e-10 2.429172910010e+00 5.934957845811e-01)
