# Wall shear stress 
# Time              	patch               	min                 	max                 
0.000000000000e+00	wall	(0.000000000000e+00 0.000000000000e+00 0.000000000000e+00)	(0.000000000000e+00 0.000000000000e+00 0.000000000000e+00)
1.000000000000e+02	wall	(-5.905930422191e-13 -8.225232543938e+00 -1.752030086083e+00)	(1.403773343874e-10 5.271769940919e-02 1.884932324731e+01)
2.000000000000e+02	wall	(-8.189916932994e-13 -3.485955951019e+00 -3.156110646081e-01)	(2.996881023290e-10 3.754345286925e-02 2.906794562216e+00)
3.000000000000e+02	wall	(-9.853611540152e-13 -1.409051797847e+00 -4.276687325660e-01)	(2.994754005983e-09 3.033105774090e-02 7.058290971331e-01)
4.000000000000e+02	wall	(-9.850952088312e-13 -7.686672422727e-01 -1.224495092547e+00)	(3.528496266225e-09 3.302555194945e-02 3.918098573356e-01)
5.000000000000e+02	wall	(-7.235598493851e-13 -5.764136088365e-01 -1.686157639311e+00)	(2.289212406506e-10 6.917272935893e-02 2.919974970687e-01)
6.000000000000e+02	wall	(-1.936425692367e-13 -4.152675331322e-01 -1.955315780872e+00)	(1.824501108542e-10 1.010511159272e-01 2.573078121791e-01)
7.000000000000e+02	wall	(5.340582630786e-13 -3.261740147431e-01 -2.111252849534e+00)	(1.433599433573e-10 2.534129273565e-01 2.254766380278e-01)
8.000000000000e+02	wall	(1.323280250377e-12 -2.586179026413e-01 -2.203203090126e+00)	(1.215295701982e-10 3.826949336238e-01 1.959390665684e-01)
9.000000000000e+02	wall	(1.683751254184e-12 -2.009080541036e-01 -2.258226075402e+00)	(1.078477884706e-10 4.673907690608e-01 1.683011726236e-01)
1.000000000000e+03	wall	(1.766158243851e-12 -1.515208033620e-01 -2.290782874816e+00)	(9.902686789156e-11 5.305020817559e-01 1.654088412851e-01)
1.100000000000e+03	wall	(1.838926228181e-12 -1.125276200368e-01 -2.308473730430e+00)	(9.678268633366e-11 5.776784289887e-01 1.664541074247e-01)
1.200000000000e+03	wall	(1.896234152883e-12 -7.831168801924e-02 -2.318697898843e+00)	(1.009347135926e-10 6.125813324984e-01 1.670984344400e-01)
1.300000000000e+03	wall	(1.944460198758e-12 -4.985744475667e-02 -2.324084829947e+00)	(1.038629550915e-10 6.439887204772e-01 1.700024065048e-01)
1.400000000000e+03	wall	(1.983433203532e-12 -2.912524252648e-02 -2.326854242723e+00)	(1.058406969241e-10 6.663962491681e-01 1.721267739485e-01)
1.500000000000e+03	wall	(2.017577015548e-12 -1.482945563661e-02 -2.328772359880e+00)	(1.072910394499e-10 6.841271065323e-01 1.738171990319e-01)
1.600000000000e+03	wall	(2.049191666366e-12 -6.778642878879e-03 -2.329487485226e+00)	(1.188066192178e-10 6.957138091610e-01 1.748662552821e-01)
1.700000000000e+03	wall	(2.074611553323e-12 -6.033112016697e-04 -2.330514435934e+00)	(1.089928081952e-10 7.055211464248e-01 1.758377920582e-01)
1.800000000000e+03	wall	(1.429649870861e-12 -6.086172605272e-04 -2.331410063816e+00)	(1.093914317814e-10 7.141274359369e-01 1.766969117361e-01)
1.900000000000e+03	wall	(1.096447508691e-12 -1.186816592630e-03 -2.332095768288e+00)	(1.096694733509e-10 7.216422762519e-01 1.774330435944e-01)
2.000000000000e+03	wall	(9.289557893349e-13 -1.649534202711e-03 -2.332604972424e+00)	(1.097765846499e-10 7.281530516886e-01 1.780605371592e-01)
2.100000000000e+03	wall	(8.287252344825e-13 -2.017636519566e-03 -2.332965081097e+00)	(1.098633402104e-10 7.337732596933e-01 1.785890316471e-01)
2.131000000000e+03	wall	(8.112194098053e-13 -2.238627871524e-03 -2.332997007429e+00)	(1.098864467619e-10 7.351605036848e-01 1.787378009140e-01)
